/*--------------------------------*- C++ -*----------------------------------*\
| =========                 |                                                 |
| \\      /  F ield         | OpenFOAM: The Open Source CFD Toolbox           |
|  \\    /   O peration     | Version:  5.x                                   |
|   \\  /    A nd           | Web:      www.OpenFOAM.org                      |
|    \\/     M anipulation  |                                                 |
\*---------------------------------------------------------------------------*/
FoamFile
{
    version     2.0;
    format      ascii;
    class       volScalarField;
    location    "100";
    object      alpha.air;
}
// * * * * * * * * * * * * * * * * * * * * * * * * * * * * * * * * * * * * * //

dimensions      [0 0 0 0 0 0 0];

internalField   nonuniform List<scalar> 
3750
(
0.0218227
0.0455147
0.0227869
0.0197597
0.0228546
0.0258021
0.0309686
0.0371663
0.0436587
0.0484014
0.0519669
0.0520312
0.0521002
0.0530657
0.0558054
0.0544886
0.0283376
0.0202716
0.0223759
0.0204876
0.0194643
0.0287939
0.0431031
0.019982
0.022638
0.0187304
0.0160338
0.0225995
0.0188675
0.0164685
0.0165746
0.0164727
0.0165746
0.0165119
0.0165746
0.0165634
0.0165746
0.0165572
0.0165773
0.0166993
0.0205786
0.0239949
0.0196362
0.0185331
0.0186876
0.0191384
0.0286643
0.0255011
0.0192212
0.0194851
0.0161519
0.015913
0.0225507
0.0189313
0.0165746
0.0162778
0.0165746
0.016302
0.0165746
0.016403
0.0165746
0.0164743
0.0165746
0.0164469
0.0165746
0.016496
0.0199256
0.0199913
0.0186876
0.018359
0.0188992
0.023889
0.0173025
0.0169005
0.0163676
0.016835
0.0160276
0.0227264
0.0215655
0.0170608
0.0165746
0.0162416
0.0165754
0.0162951
0.0165753
0.0164043
0.0165908
0.0164003
0.0165755
0.0164396
0.0165999
0.0205987
0.0206577
0.0184304
0.0186876
0.0201806
0.0222621
0.0177936
0.0175321
0.0175278
0.0163974
0.01594
0.0220514
0.0220612
0.0187271
0.0162881
0.0165746
0.0162902
0.0165746
0.0163934
0.0165746
0.0164475
0.0165746
0.0164476
0.0165746
0.0165132
0.0195084
0.0205726
0.0186876
0.0184037
0.0195868
0.0192153
0.0167322
0.0169386
0.0167736
0.0166456
0.0160276
0.0205691
0.0221056
0.0213161
0.0165746
0.0162575
0.0165746
0.0163109
0.016575
0.0164175
0.0165825
0.0164197
0.0165748
0.0164484
0.0165747
0.0193943
0.0206125
0.0188207
0.0186876
0.0195589
0.0184305
0.0167433
0.0171811
0.0172077
0.0164812
0.0158862
0.018152
0.0218325
0.0218615
0.0183115
0.0165746
0.0162795
0.0165746
0.0163793
0.0165746
0.0164333
0.0165746
0.0164387
0.0165746
0.0164996
0.0184499
0.0205687
0.0203519
0.0183784
0.0190617
0.0174768
0.0165434
0.0169226
0.01699
0.0165364
0.0160276
0.0167378
0.0209468
0.0218808
0.0204535
0.0162762
0.0165746
0.0163118
0.0165747
0.0164163
0.0165794
0.0164177
0.0165747
0.0164476
0.0165746
0.0179447
0.0208544
0.0224451
0.0194435
0.0188806
0.017197
0.0165644
0.0170037
0.0170764
0.0165529
0.0158928
0.0161427
0.0193474
0.021704
0.0212373
0.0165747
0.0162754
0.0165746
0.016367
0.0165746
0.0164229
0.0165746
0.0164331
0.0165746
0.0164828
0.0171959
0.0206154
0.0230379
0.0212324
0.0186503
0.0168878
0.0165227
0.0169231
0.0170891
0.0166505
0.0160276
0.0161444
0.0178186
0.020816
0.0212341
0.0177756
0.0165746
0.0163016
0.0165746
0.0164069
0.0165747
0.0164196
0.0165746
0.0164568
0.0165746
0.0170169
0.0203542
0.0230601
0.0222672
0.018612
0.0167734
0.0165286
0.0169047
0.0172425
0.0166544
0.0158893
0.0160915
0.0166007
0.0190657
0.020779
0.0194867
0.0162995
0.0165746
0.0163578
0.0165747
0.0164168
0.0165746
0.0164284
0.0165746
0.0164641
0.0168125
0.0198592
0.0230284
0.0223322
0.0185124
0.0166583
0.0165183
0.0169118
0.0171844
0.0166822
0.0160276
0.0160786
0.0160678
0.0173169
0.0198145
0.0201061
0.016575
0.0163046
0.0165746
0.0164193
0.0165747
0.0164166
0.0165746
0.016453
0.0165746
0.016757
0.0191746
0.0226485
0.022017
0.0183387
0.016662
0.0165444
0.016911
0.0171254
0.0166204
0.01589
0.0160276
0.0160419
0.0164003
0.0187618
0.020175
0.0177269
0.0165746
0.0163645
0.0165746
0.016422
0.0165746
0.0164292
0.0165747
0.016488
0.0166968
0.0183987
0.0217561
0.0212768
0.0180309
0.0166318
0.016538
0.0168604
0.017181
0.0165829
0.0160276
0.0160159
0.0160539
0.0161783
0.0179267
0.0201729
0.0196541
0.016345
0.0165746
0.0164145
0.0165747
0.0164316
0.0165746
0.0164767
0.0165746
0.0167149
0.0177608
0.0205261
0.0202467
0.0176929
0.0166258
0.0165315
0.0168861
0.0172074
0.0166524
0.0158727
0.0160276
0.0160274
0.0160548
0.0172474
0.019922
0.0204756
0.0169199
0.0163592
0.0165746
0.0164346
0.0165746
0.0164489
0.0165746
0.0164788
0.0166948
0.0173
0.01921
0.0190452
0.0173557
0.0166205
0.016538
0.0169078
0.0171805
0.0166451
0.0160276
0.0160184
0.0160276
0.0160265
0.016766
0.0193157
0.020491
0.0187773
0.0165746
0.0164147
0.0165746
0.016437
0.0165746
0.0164802
0.0165746
0.0166853
0.0170104
0.0181333
0.018024
0.0170621
0.0166424
0.0165375
0.0169097
0.0172526
0.016623
0.0158763
0.0160276
0.0160197
0.0160276
0.0164203
0.0184538
0.0204304
0.0201629
0.0165296
0.0165746
0.0164358
0.0165746
0.0164539
0.0165747
0.0164864
0.0166813
0.0168738
0.017411
0.0173169
0.0168501
0.0166336
0.016538
0.0169018
0.0173106
0.0166972
0.0160276
0.0160048
0.0160276
0.0160221
0.0161989
0.0175666
0.0200009
0.0204128
0.0178782
0.0164204
0.0165746
0.0164434
0.0165746
0.0164874
0.0165746
0.0166805
0.0168305
0.0170111
0.016964
0.0167672
0.0165521
0.0165113
0.0169874
0.0172694
0.0166921
0.0158553
0.0160276
0.016016
0.0160276
0.0160732
0.016849
0.0192041
0.0204108
0.0195592
0.0166091
0.0164397
0.0165746
0.0164591
0.0165746
0.0164933
0.0166854
0.0168049
0.0168946
0.0167998
0.0166981
0.0166143
0.0165412
0.0170136
0.0173338
0.0166663
0.0160276
0.0160049
0.0160276
0.0160195
0.0160317
0.0164003
0.0182917
0.0202503
0.0203029
0.0180844
0.0167193
0.0164867
0.0165746
0.0164883
0.0165746
0.0167281
0.0167866
0.0168844
0.0168006
0.0167001
0.016613
0.0164929
0.0169737
0.0173961
0.0167175
0.0158629
0.0160276
0.0160119
0.0160276
0.0160273
0.0161836
0.0175001
0.0197956
0.0203196
0.0196215
0.0182353
0.0175882
0.016824
0.0165746
0.0165127
0.0166992
0.0167833
0.0168556
0.0167804
0.0166852
0.0165478
0.0165412
0.0170537
0.017317
0.016762
0.0160276
0.0160009
0.0160276
0.0160177
0.0160276
0.0161203
0.0169491
0.019166
0.020281
0.0201834
0.0197414
0.0193525
0.0181607
0.0164999
0.0165746
0.0166133
0.0167862
0.0167977
0.0166901
0.0166688
0.0166068
0.0165218
0.0171474
0.0173851
0.016754
0.0158659
0.0160276
0.0160107
0.0160276
0.0160266
0.0161096
0.0166233
0.0184763
0.019987
0.020223
0.0203495
0.0203514
0.0194528
0.0168534
0.0165028
0.0166976
0.0167929
0.0167875
0.0167261
0.0166707
0.016603
0.0165458
0.0170928
0.0174063
0.0167854
0.0160276
0.0159984
0.0160276
0.0160166
0.0160276
0.0161114
0.0164631
0.0178505
0.019429
0.020015
0.0202916
0.0203718
0.0202654
0.0177033
0.0165746
0.016696
0.0167844
0.0167887
0.0167531
0.0166645
0.0165458
0.016486
0.0171613
0.0172953
0.016753
0.0158468
0.0160276
0.0160081
0.0160276
0.0160267
0.0161165
0.0163922
0.0173409
0.0186902
0.0194408
0.0199274
0.020367
0.0203397
0.0182102
0.0165122
0.0166606
0.0167616
0.016747
0.0167401
0.0166935
0.0165394
0.0165458
0.0172349
0.01735
0.0167127
0.0160276
0.0159861
0.0160276
0.0160168
0.0160276
0.0161248
0.0163646
0.01697
0.0179274
0.0186485
0.0192868
0.0200663
0.0203091
0.0184957
0.0165746
0.016718
0.0167178
0.016803
0.0168558
0.0168186
0.0165827
0.0165012
0.0171581
0.0173419
0.016775
0.0158576
0.0160276
0.01601
0.0160276
0.0160311
0.0161365
0.0163608
0.0167345
0.0173024
0.0178398
0.0185113
0.0195674
0.0200916
0.0185918
0.0165241
0.016724
0.0167533
0.0168901
0.0171533
0.0171859
0.0166256
0.0165458
0.0172125
0.01722
0.0168065
0.0160276
0.0160049
0.0160276
0.0160181
0.0160432
0.0161544
0.0163693
0.016619
0.0169004
0.0172313
0.0178138
0.0189863
0.0197306
0.0186153
0.0165746
0.0166875
0.0167802
0.0170286
0.0176621
0.0179749
0.0169121
0.0165112
0.0172402
0.0172734
0.0167556
0.0158591
0.0160276
0.0160147
0.0160276
0.0160547
0.0161844
0.0163982
0.0165921
0.0167194
0.0168957
0.017363
0.018476
0.0193157
0.0186927
0.0168412
0.0167082
0.0168064
0.0174721
0.0186206
0.0191881
0.0175585
0.0165458
0.0171555
0.0172623
0.0166913
0.0160276
0.0159864
0.0160276
0.016026
0.0160821
0.0162335
0.0164427
0.0166008
0.0166884
0.0167769
0.0171111
0.0181265
0.0189762
0.0186629
0.0170674
0.0167502
0.0169762
0.0181632
0.0198661
0.0202858
0.0181687
0.0164733
0.0172011
0.0171736
0.0167183
0.0158594
0.0160276
0.016018
0.0160276
0.0161478
0.0163112
0.0165165
0.0166288
0.0166975
0.0167721
0.0170901
0.0179916
0.0186914
0.0184918
0.017067
0.0167077
0.0172293
0.0188624
0.020688
0.0207733
0.0184212
0.0165458
0.0172323
0.017252
0.0167319
0.0160276
0.0160208
0.0160276
0.0160208
0.0161502
0.0164428
0.0166374
0.0166911
0.0167296
0.0167894
0.017127
0.0179697
0.0186445
0.0185366
0.0171303
0.0167113
0.017525
0.0197184
0.02088
0.0208258
0.018576
0.016513
0.0172048
0.0172488
0.016696
0.0158632
0.0160276
0.016017
0.0160421
0.0161661
0.0165548
0.0167468
0.0168347
0.0167937
0.0168302
0.0171166
0.0179887
0.0186677
0.0185423
0.0172172
0.0168275
0.0178983
0.0199107
0.0208781
0.0206255
0.0185091
0.0167588
0.0172229
0.0171931
0.0167211
0.0160276
0.015985
0.0160276
0.0160581
0.0162736
0.0166283
0.0168058
0.0169421
0.0169489
0.0169086
0.0171553
0.0181166
0.0187233
0.0185689
0.0172907
0.016927
0.0179583
0.0198401
0.0206976
0.0201178
0.0182086
0.0171964
0.0172224
0.0172739
0.0167089
0.0158618
0.0160276
0.0160288
0.0160507
0.0163866
0.0168083
0.0169161
0.0169492
0.0170143
0.017029
0.0172858
0.0182182
0.0188792
0.0188173
0.0174548
0.0169323
0.0179276
0.0197066
0.0203008
0.0194575
0.0178653
0.0172401
0.0171976
0.0172691
0.0166908
0.0160276
0.01624
0.016038
0.0161037
0.0164711
0.0169042
0.0170082
0.0170427
0.0170213
0.0170543
0.0174395
0.0183113
0.0190666
0.0192065
0.0177092
0.0169629
0.0178772
0.019302
0.01963
0.0186516
0.0174902
0.0172152
0.0171995
0.0172221
0.0167081
0.0158682
0.016827
0.0160864
0.0161226
0.0166551
0.0169067
0.0169892
0.0170884
0.0171428
0.0171491
0.0174992
0.0185533
0.0194032
0.0195839
0.0180067
0.0171183
0.0177134
0.018676
0.0187242
0.0177847
0.0170648
0.0171228
0.0171798
0.0172814
0.0166865
0.0160276
0.0175173
0.016256
0.016127
0.0167874
0.0170082
0.0170719
0.017161
0.01716
0.0172382
0.0176365
0.0187452
0.0198107
0.0200262
0.0184527
0.0172593
0.0174261
0.0181326
0.0179712
0.0172842
0.0169617
0.0171079
0.017109
0.0173071
0.0166647
0.0158574
0.0176737
0.0167473
0.016239
0.0168345
0.0170055
0.0170705
0.0171617
0.0171613
0.0172158
0.0176331
0.0187417
0.0199817
0.0205222
0.018931
0.0173593
0.0173215
0.0176412
0.0174032
0.0169882
0.0168631
0.017078
0.0171528
0.0172804
0.0166593
0.0160276
0.0176845
0.0173109
0.0164589
0.0169594
0.0169875
0.0170324
0.0171469
0.0172143
0.017294
0.0175687
0.0187303
0.0202008
0.0206449
0.0193474
0.0175455
0.0172094
0.0171417
0.0169094
0.016761
0.0167487
0.0170052
0.0171661
0.0172567
0.0166632
0.0158607
0.017698
0.0177174
0.016745
0.0169773
0.0170657
0.0171124
0.0171715
0.0172051
0.017289
0.0176135
0.0187
0.0201974
0.0206435
0.0197182
0.0177448
0.0170687
0.0170333
0.0168566
0.0167565
0.0167542
0.016946
0.0171259
0.0172671
0.0166516
0.0160276
0.0175971
0.0177836
0.0171311
0.016987
0.0170515
0.0171026
0.0171695
0.0171717
0.0172349
0.0175905
0.0186913
0.0201171
0.0206289
0.0200451
0.0179352
0.0171135
0.0169532
0.0168024
0.0167317
0.0167305
0.0169509
0.0171143
0.0173448
0.0166414
0.0158744
0.0173353
0.0177819
0.0176637
0.0170931
0.0170515
0.0170765
0.0171481
0.0172281
0.0173048
0.0174937
0.0186007
0.0200933
0.0206305
0.0204405
0.0181738
0.017144
0.016837
0.0167083
0.016678
0.0166789
0.0170272
0.0171288
0.0173251
0.0166625
0.0160276
0.0170081
0.0177277
0.0177151
0.0171618
0.017093
0.0171611
0.0171677
0.017219
0.0172937
0.0175267
0.0184079
0.0199746
0.0205987
0.0205193
0.0184554
0.0171813
0.0168888
0.0167631
0.0167214
0.0166637
0.0170111
0.0172193
0.0172668
0.0166737
0.0158703
0.016728
0.0175332
0.0177138
0.0172216
0.0170823
0.0171474
0.0171736
0.0171748
0.0172289
0.0175
0.0183137
0.0197197
0.0204669
0.0204907
0.0188398
0.0173306
0.0168809
0.0167492
0.016708
0.0166658
0.0169885
0.01721
0.0173325
0.0166728
0.0160276
0.0164586
0.0172912
0.0177116
0.0173921
0.0170825
0.0171113
0.017154
0.0172373
0.0172972
0.017399
0.0181785
0.0195316
0.0204262
0.0205816
0.0191832
0.0175374
0.0168582
0.0166941
0.0166935
0.0167148
0.0170638
0.0171818
0.0173143
0.0166795
0.0158881
0.0162454
0.0170554
0.0176651
0.0174821
0.0171197
0.017158
0.017159
0.0172253
0.0172876
0.0174388
0.0179416
0.0192884
0.0203138
0.0205817
0.0194606
0.0177538
0.0169394
0.0167517
0.0167264
0.0167192
0.0171262
0.0172585
0.0172491
0.0166852
0.0160276
0.0162162
0.0167819
0.0175777
0.017468
0.0171315
0.0171573
0.0171709
0.0171721
0.0172198
0.0174179
0.017901
0.0189446
0.0200509
0.020549
0.0198902
0.0180493
0.017031
0.0167703
0.0167139
0.0167138
0.0171979
0.0172898
0.0173044
0.0166859
0.0158831
0.0162264
0.016536
0.0174721
0.0174447
0.0171421
0.0171483
0.0171587
0.0172373
0.0172825
0.0173258
0.017833
0.0187799
0.0199882
0.0206544
0.0203445
0.0185153
0.0171379
0.0167684
0.0167138
0.016735
0.0174207
0.0172871
0.0172793
0.0167083
0.0160276
0.0162058
0.016447
0.0172892
0.0174429
0.0172765
0.0172011
0.0171576
0.0172234
0.0172747
0.0173763
0.0176783
0.018617
0.019894
0.0206833
0.0206955
0.0190573
0.0174199
0.0168748
0.0167532
0.016836
0.0176419
0.01738
0.0172061
0.0167542
0.0158966
0.0161019
0.0163928
0.0171025
0.0174423
0.0172985
0.0172494
0.0171708
0.017171
0.0172032
0.0173643
0.0176999
0.0183595
0.0196989
0.020668
0.0211123
0.019615
0.0177861
0.0170306
0.0168517
0.0170647
0.0178209
0.0174293
0.0172622
0.0167486
0.0160276
0.0160923
0.0162916
0.0169097
0.0173711
0.0172729
0.0172412
0.0171787
0.017234
0.0172574
0.0172822
0.0176705
0.0183469
0.0196655
0.0207478
0.0211207
0.0203699
0.0182262
0.0172551
0.0170216
0.0173223
0.0180331
0.0174262
0.017239
0.0167567
0.0158904
0.0161783
0.0162591
0.016728
0.0172379
0.0173208
0.0173187
0.0171791
0.0172196
0.0172522
0.0173405
0.0175573
0.0183047
0.0195799
0.0207324
0.0211203
0.0209538
0.0188971
0.0177214
0.0174198
0.0176098
0.0180319
0.0175212
0.0171797
0.0167891
0.0160276
0.0162043
0.0163061
0.0166344
0.0171643
0.0172926
0.0173186
0.0172172
0.0171846
0.0171858
0.0173344
0.0175985
0.018198
0.0193855
0.0206226
0.0212081
0.0212269
0.0196779
0.0183397
0.017961
0.0180608
0.0180283
0.0175195
0.0172486
0.0168311
0.015892
0.0161716
0.0163286
0.0164956
0.0170106
0.0171841
0.0172991
0.0172933
0.0172282
0.0172341
0.0172657
0.0175767
0.0181008
0.0191677
0.0205393
0.0211782
0.0212286
0.020391
0.0190416
0.0185788
0.0185045
0.0181106
0.0174939
0.0172345
0.0168283
0.0160276
0.0161489
0.0162775
0.0163378
0.0167864
0.0172118
0.0173648
0.0172613
0.0172102
0.0172488
0.0173346
0.0174864
0.01799
0.0189288
0.020324
0.0210324
0.0212219
0.0210278
0.0199501
0.0193953
0.0187393
0.0180917
0.0175629
0.0171965
0.0168382
0.0160292
0.0161489
0.0162368
0.0163712
0.0167023
0.017156
0.0173641
0.0172753
0.0172039
0.0172037
0.0173341
0.0175415
0.0179889
0.0187392
0.0199357
0.0208918
0.0211533
0.0212177
0.0207289
0.0201185
0.0190098
0.0180021
0.0175549
0.0172801
0.0168593
0.0161978
0.0161785
0.0162867
0.0163414
0.0165977
0.016994
0.0173357
0.0173302
0.0172398
0.0172521
0.0172747
0.0175376
0.017938
0.0185117
0.019587
0.0206294
0.0211643
0.0212191
0.0210401
0.0203697
0.0190046
0.0180143
0.0175828
0.0172747
0.0168556
0.0163138
0.0162009
0.0162673
0.016288
0.0164686
0.0170039
0.017409
0.0174421
0.0172329
0.0172754
0.0173452
0.0174847
0.0177964
0.0182022
0.019182
0.0202217
0.0210734
0.0212
0.021199
0.0205534
0.0189371
0.0179466
0.0177607
0.0172513
0.0168699
0.0163019
0.0162691
0.0162689
0.0163611
0.0164926
0.016946
0.0174467
0.0175147
0.017233
0.017241
0.0173363
0.01745
0.0178224
0.0180888
0.0186981
0.0197766
0.0208274
0.0211147
0.0211744
0.0204883
0.0188743
0.0177853
0.0178371
0.0173387
0.016867
0.0163007
0.0162986
0.0163268
0.01634
0.0164623
0.016795
0.0174172
0.0175489
0.0172616
0.0173037
0.0173034
0.0174289
0.017786
0.0179883
0.0184273
0.0193528
0.0206015
0.0210489
0.0210053
0.0202468
0.0186841
0.0177948
0.0178402
0.0173339
0.016864
0.0163387
0.0162961
0.0163054
0.0163051
0.0163928
0.0168175
0.017483
0.0176701
0.0173133
0.0173032
0.0173448
0.0174698
0.0176707
0.0178189
0.0182213
0.0190548
0.0202516
0.0208205
0.0206943
0.0199549
0.0183908
0.0177193
0.0178397
0.0173037
0.0169126
0.0163277
0.0162819
0.0162793
0.0163633
0.016437
0.0167749
0.0175401
0.0178107
0.0173686
0.0173024
0.0173134
0.0174507
0.0177121
0.0178383
0.0179676
0.0187462
0.0197902
0.0203969
0.0202492
0.0195149
0.0180823
0.0176017
0.0178396
0.0173829
0.0168869
0.0163113
0.0162793
0.016345
0.0163529
0.0164384
0.0166557
0.0175098
0.0179038
0.0175498
0.0173062
0.0173022
0.0173667
0.0176803
0.0178109
0.0179714
0.0184124
0.0194404
0.019962
0.0197577
0.0189146
0.0178936
0.0175886
0.0178315
0.0173717
0.0168435
0.0163883
0.0163308
0.0163387
0.0163475
0.0163988
0.0166888
0.0174884
0.018022
0.0177292
0.0173212
0.0173081
0.0174168
0.0175874
0.0177031
0.0179353
0.0182994
0.019064
0.0194577
0.0191882
0.0184223
0.017772
0.0175554
0.0178414
0.0173275
0.01691
0.0163794
0.0164546
0.0163395
0.0163984
0.0163975
0.0166574
0.017477
0.0181655
0.0178642
0.0172934
0.0172811
0.0174018
0.0176335
0.0177392
0.0178212
0.018172
0.0186804
0.0189116
0.018571
0.0180955
0.0176026
0.0175559
0.0178412
0.0173953
0.0168905
0.0163792
0.0166207
0.0163757
0.0163983
0.0163993
0.0165629
0.0175184
0.0184556
0.0181381
0.0173151
0.017278
0.0173266
0.0176065
0.017715
0.017853
0.018003
0.0183691
0.0184752
0.0182322
0.0178045
0.0176136
0.0175364
0.0178414
0.0173935
0.0168228
0.0164209
0.0169633
0.016373
0.0163727
0.0164612
0.0166119
0.0174885
0.0185641
0.0184051
0.0173877
0.0172844
0.0173883
0.017536
0.0176247
0.0178231
0.0180224
0.0181331
0.0181105
0.0179924
0.017724
0.0175642
0.0175082
0.017818
0.0173631
0.0168713
0.0164734
0.0172095
0.0163727
0.016373
0.0164448
0.0165863
0.0173697
0.0185683
0.0186382
0.0175828
0.0172783
0.0173724
0.0175842
0.01768
0.017738
0.0179773
0.0180732
0.0180059
0.0177634
0.0177071
0.0175
0.0175015
0.0178316
0.0173299
0.0168425
0.0164778
0.0172989
0.0164497
0.0163975
0.0164085
0.0165049
0.0173857
0.0186834
0.0190966
0.0178239
0.0172768
0.0173111
0.0175683
0.0176606
0.0177862
0.0179049
0.0179946
0.0178967
0.0177843
0.017627
0.0175692
0.0174925
0.0178311
0.0173408
0.0167704
0.0165442
0.0173006
0.0165664
0.0164775
0.0164763
0.0165687
0.0173528
0.0186853
0.0193472
0.0180342
0.0172936
0.0173901
0.0175233
0.017595
0.0177648
0.0178931
0.017901
0.0178118
0.0177501
0.0175998
0.0175494
0.017491
0.0178316
0.0174184
0.0168196
0.0166128
0.0172901
0.0167349
0.0164839
0.0164584
0.0165477
0.0172269
0.0186166
0.0193744
0.0184044
0.0173757
0.0173898
0.0175724
0.0176669
0.0177212
0.017853
0.0177985
0.0177936
0.0176663
0.0176406
0.0175017
0.0174925
0.0178285
0.0173974
0.0167905
0.0166143
0.0172867
0.0170636
0.0164675
0.0164581
0.016481
0.0172388
0.0186459
0.0194911
0.0189021
0.0174761
0.0173913
0.017597
0.0176863
0.0177827
0.0177738
0.0177625
0.0177556
0.0177109
0.0176242
0.0175286
0.0174914
0.017834
0.0173529
0.016722
0.0166177
0.0172839
0.0171837
0.0164773
0.0164831
0.0165545
0.0172064
0.018596
0.0194897
0.019272
0.0177418
0.0174766
0.0176135
0.0176854
0.0178092
0.0178138
0.0177992
0.0176874
0.0176855
0.0175634
0.0175355
0.0174945
0.0178245
0.0174318
0.0167684
0.0166677
0.0172502
0.0172555
0.0165438
0.0164727
0.0165386
0.0170976
0.0184422
0.0194413
0.0196473
0.0180849
0.0176011
0.0177279
0.0178106
0.0178418
0.0178301
0.0177688
0.0177196
0.0176112
0.0175943
0.0175634
0.0175007
0.0178315
0.0174228
0.0167375
0.0166529
0.0171731
0.0172561
0.0167108
0.0164732
0.0164975
0.0171233
0.0183668
0.0195151
0.0199349
0.0184326
0.017757
0.0179022
0.0179549
0.017996
0.017848
0.0177154
0.0176923
0.0176641
0.0176008
0.0175991
0.0174927
0.0178162
0.0173911
0.0166689
0.0166394
0.0171969
0.0172555
0.0168305
0.0165009
0.0165789
0.0170958
0.0182287
0.0194767
0.0199456
0.0189752
0.0181219
0.0181036
0.0181036
0.0181795
0.017978
0.0177933
0.017644
0.0176443
0.0175772
0.0175655
0.0174931
0.0178254
0.0174719
0.0167139
0.0166369
0.0171312
0.0172299
0.0169441
0.0164985
0.0165904
0.0170111
0.0179976
0.0193589
0.0199356
0.0194731
0.0185597
0.0183746
0.018424
0.0183876
0.0181528
0.0178547
0.0176883
0.0175817
0.0175591
0.0175615
0.0175141
0.0178182
0.0174644
0.0167
0.0166392
0.016968
0.0172051
0.0171636
0.0164991
0.0165862
0.0170587
0.0179244
0.019331
0.0198983
0.0198242
0.0189535
0.0187233
0.0188211
0.0187905
0.0183466
0.0179083
0.0177414
0.0176391
0.0175598
0.0175604
0.0175326
0.0178212
0.0174318
0.0166531
0.0166507
0.0168965
0.0172212
0.0173135
0.01658
0.0166762
0.0170382
0.0178156
0.0192222
0.0199092
0.0199127
0.0194722
0.019196
0.0191972
0.0192071
0.0187022
0.0181137
0.0177713
0.017643
0.0175987
0.0175494
0.0174994
0.017818
0.0175128
0.016593
0.0166243
0.0167715
0.0172912
0.017404
0.0166808
0.0166923
0.0169801
0.0176324
0.019013
0.0198761
0.0199069
0.0198047
0.0196308
0.0194885
0.0195516
0.0191494
0.0183644
0.0178503
0.0176348
0.0175763
0.0175407
0.0174994
0.0178215
0.0175057
0.0165937
0.0166214
0.0166281
0.0172593
0.0175766
0.0167735
0.0166947
0.0170505
0.0176338
0.0187734
0.0197299
0.0198416
0.0198467
0.0197568
0.0197832
0.0197822
0.0194687
0.0186026
0.018007
0.017731
0.0175454
0.0175455
0.0175054
0.0178137
0.0174735
0.016632
0.0166379
0.0166343
0.0171816
0.017664
0.0169812
0.0167813
0.0170378
0.0175944
0.0185274
0.0196192
0.0198467
0.0198444
0.0197737
0.0197822
0.0197793
0.0196375
0.0190084
0.0183188
0.017845
0.0175872
0.0175353
0.0175617
0.0178132
0.0175583
0.0166114
0.0166414
0.0165917
0.0172259
0.0177036
0.0171413
0.0167915
0.0169951
0.0175108
0.0183489
0.0193792
0.0197584
0.0198164
0.0197503
0.0197557
0.019731
0.019763
0.0195021
0.0186778
0.0179637
0.0176202
0.0175351
0.0175865
0.0178114
0.0175552
0.0165621
0.0166812
0.0164978
0.0172106
0.0178547
0.017274
0.0167949
0.0170717
0.0174263
0.0181328
0.019001
0.0195028
0.0196654
0.0197045
0.0196396
0.0197393
0.0198653
0.019788
0.0190556
0.0182398
0.0176355
0.0175676
0.0175616
0.0178099
0.0175305
0.0165002
0.0166928
0.0164714
0.0171543
0.0179015
0.0175311
0.0168795
0.0170593
0.0173612
0.0178999
0.0187095
0.0192561
0.0194164
0.0195211
0.0195441
0.0196929
0.0198633
0.0200638
0.0196176
0.0185624
0.0177576
0.0175608
0.0175615
0.0178083
0.0176212
0.0165003
0.0166919
0.0164719
0.0170968
0.0179046
0.0177564
0.0169208
0.0170267
0.0173936
0.0177158
0.018377
0.0189026
0.0190929
0.0191774
0.0193363
0.0195307
0.0197883
0.0201654
0.0199998
0.0188475
0.017882
0.0175608
0.017599
0.0178108
0.0176218
0.0165417
0.0166938
0.0164765
0.0170552
0.018013
0.017937
0.016949
0.0170998
0.0173508
0.0175569
0.0179622
0.0184409
0.0187907
0.0188844
0.0189843
0.0192874
0.0198102
0.0201635
0.0201615
0.0192509
0.0179825
0.0176004
0.0176246
0.0178055
0.0176021
0.016523
0.0167179
0.0164381
0.0170795
0.0180223
0.0182368
0.0170712
0.0170723
0.0172583
0.0175574
0.0178058
0.0181599
0.0184423
0.0185401
0.0186101
0.018986
0.0197642
0.0201637
0.0201635
0.0195899
0.0182029
0.0176217
0.0176298
0.017801
0.0176902
0.0164749
0.0167384
0.0164353
0.0170297
0.0179942
0.0182569
0.0171594
0.0170711
0.0173063
0.017513
0.0176725
0.017915
0.0180941
0.0181006
0.0182469
0.0187386
0.0196109
0.0201251
0.0201523
0.0196468
0.0184107
0.0176236
0.0176998
0.0177965
0.0177021
0.0164148
0.0167805
0.0164373
0.0169161
0.0180598
0.0182562
0.0172346
0.0170947
0.0172951
0.0174323
0.0174982
0.0176623
0.0178224
0.0179297
0.0180423
0.0184472
0.0194127
0.0200761
0.0200969
0.0197808
0.0184722
0.0176888
0.0176898
0.0177806
0.0176815
0.0164151
0.016818
0.0164144
0.0169405
0.0180499
0.0183077
0.017424
0.0170724
0.0172475
0.0173573
0.0175328
0.0176505
0.017651
0.0177794
0.017846
0.0180731
0.0191937
0.0200088
0.0200979
0.0197702
0.0186255
0.0176898
0.017689
0.0177838
0.0177709
0.0164583
0.0168694
0.0164124
0.016895
0.0179929
0.0184063
0.0176038
0.0170718
0.0172059
0.0173304
0.0174972
0.0175917
0.017641
0.0176015
0.0176154
0.0179653
0.0190364
0.0199564
0.0200421
0.0196869
0.0186439
0.0176891
0.0177251
0.0177841
0.0177814
0.0164248
0.0169118
0.0164512
0.0167727
0.017917
0.0184062
0.0177699
0.0171105
0.0172169
0.0173789
0.0174023
0.0175098
0.0175743
0.0175998
0.0176088
0.0178577
0.0188325
0.0197786
0.0198906
0.0196768
0.018613
0.0177267
0.0177128
0.0177753
0.0177591
0.0163487
0.0169157
0.01644
0.016792
0.0178233
0.0184054
0.0180883
0.0171617
0.0173033
0.0173669
0.0174579
0.0175001
0.0174833
0.0175307
0.0175584
0.0176875
0.0185723
0.019464
0.0197631
0.0195593
0.018703
0.0177494
0.0177123
0.0177261
0.0178515
0.0163968
0.0169299
0.0164394
0.0167461
0.017763
0.018377
0.0183646
0.0172247
0.0172924
0.01732
0.0174332
0.0174594
0.0174761
0.0174493
0.0174559
0.0177097
0.0183348
0.0192141
0.0195055
0.0192973
0.0186947
0.0177463
0.0177322
0.017787
0.0178571
0.0163711
0.0170387
0.0164914
0.0166306
0.0176352
0.0183577
0.0184211
0.0174144
0.0172943
0.0173066
0.0173659
0.0173695
0.0174338
0.0174533
0.0174723
0.0176683
0.0181042
0.0188874
0.0190974
0.01909
0.018682
0.0178403
0.0177458
0.017809
0.017833
0.016298
0.0170652
0.0164925
0.0166613
0.0174469
0.0183455
0.0184521
0.0176088
0.0173371
0.0173273
0.0174283
0.017425
0.0173895
0.017411
0.0174438
0.0175517
0.0179967
0.0184601
0.0187732
0.0188168
0.0187134
0.0179609
0.0177025
0.0177771
0.0179276
0.0163447
0.0171
0.0164935
0.016621
0.017279
0.0183676
0.0185068
0.017794
0.0173852
0.017414
0.0174274
0.0174077
0.0173903
0.0173597
0.0173627
0.0175853
0.0178521
0.0182049
0.0184219
0.0184371
0.018673
0.0180692
0.0176973
0.0177346
0.0179279
0.0163181
0.0172421
0.0165886
0.0165682
0.0171149
0.0183189
0.0186377
0.0181313
0.0174683
0.017491
0.0174281
0.0173715
0.0173691
0.0173805
0.0174106
0.0175503
0.0176686
0.0179638
0.0179949
0.0183146
0.0186533
0.018192
0.0176987
0.0177385
0.0179004
0.0162409
0.0173375
0.0166734
0.0165681
0.0170701
0.0181908
0.0186379
0.0183867
0.0177151
0.0175721
0.017538
0.0174462
0.0173565
0.0173583
0.0173932
0.0174535
0.0176643
0.0176828
0.0178747
0.0181981
0.0186323
0.018348
0.017769
0.0178025
0.0179926
0.0162858
0.0174232
0.0167547
0.0165263
0.0169775
0.0180405
0.0186211
0.0186367
0.0179886
0.0177204
0.0176544
0.0175113
0.017377
0.0173416
0.0173419
0.0175004
0.0176242
0.0176717
0.017753
0.0180386
0.0186042
0.0185655
0.0177674
0.0177792
0.0179914
0.0162585
0.017627
0.0169575
0.0165196
0.0168199
0.0178813
0.0186065
0.0188091
0.0182927
0.0179722
0.0177821
0.0175809
0.0174195
0.0173722
0.0174012
0.0174708
0.0175393
0.0175946
0.0175923
0.01808
0.0185786
0.0185534
0.0177329
0.0177326
0.0179599
0.0161797
0.01775
0.0171356
0.0165224
0.0168432
0.0178015
0.0185961
0.0188163
0.0187255
0.0183874
0.0180751
0.0177962
0.0174852
0.0173759
0.0173759
0.0174381
0.0174458
0.0174571
0.0176003
0.0180505
0.018578
0.0184739
0.0177151
0.0177702
0.0180427
0.0162244
0.0179474
0.0172975
0.0165108
0.0168045
0.0176599
0.0186243
0.0188226
0.0188155
0.018696
0.0183591
0.0180368
0.017701
0.0173882
0.0173744
0.0174441
0.0174501
0.0174869
0.0175662
0.0179675
0.018543
0.018525
0.0177168
0.0177501
0.0180497
0.0161978
0.0180636
0.0176104
0.0165114
0.0167169
0.017432
0.0185602
0.0188163
0.0188078
0.0188118
0.0186466
0.0182675
0.0179586
0.0175372
0.0173857
0.0174028
0.0174486
0.0174526
0.0175269
0.0180317
0.0185167
0.0184966
0.0177733
0.0177344
0.0180239
0.0161186
0.0180643
0.0178784
0.0165852
0.0167754
0.0173791
0.0184057
0.0187958
0.0188029
0.0188158
0.0188181
0.0186393
0.01819
0.0177305
0.0174043
0.0173996
0.0174026
0.0174016
0.0175053
0.0180154
0.0184956
0.018394
0.0177448
0.0177367
0.0181068
0.0161606
0.0184394
0.0179458
0.0167068
0.0167525
0.0172842
0.0183203
0.0187193
0.0188158
0.0188181
0.0188062
0.0187759
0.0185326
0.0179447
0.0174481
0.0174057
0.0174003
0.0174362
0.017522
0.0179655
0.0184626
0.0184262
0.0177137
0.0177172
0.0181235
0.0161336
0.0198142
0.0180882
0.0168393
0.0167512
0.0171164
0.0181688
0.0187339
0.0188181
0.0188158
0.0187639
0.018764
0.0188055
0.0183209
0.017645
0.0174091
0.0174076
0.0174422
0.017603
0.0180372
0.0184117
0.0183804
0.0177198
0.0176991
0.0180999
0.0160538
0.0194827
0.0180865
0.0171224
0.0167774
0.0171354
0.0179426
0.0186476
0.0187869
0.0187945
0.0188235
0.0188318
0.0188445
0.0186864
0.0178904
0.0174369
0.0174251
0.017453
0.0176686
0.0180548
0.0183932
0.0182418
0.0176895
0.0177061
0.0181848
0.0160975
0.0198814
0.0180653
0.0174032
0.0168084
0.0170892
0.01773
0.0184366
0.0186802
0.0187087
0.0187914
0.0188221
0.0188733
0.01888
0.0181489
0.0176206
0.017468
0.0175853
0.0177213
0.0180491
0.0183488
0.0182005
0.0176415
0.0176853
0.0182014
0.0160709
0.0194827
0.0181573
0.0176503
0.0168634
0.0170166
0.0175184
0.0182858
0.0186184
0.0186996
0.018684
0.0187502
0.0189116
0.0191682
0.0185491
0.0178655
0.0176699
0.0177433
0.0178291
0.0181424
0.0182811
0.0180928
0.0176385
0.0176413
0.0181779
0.0159899
0.0198613
0.0181498
0.0180272
0.0170631
0.0170662
0.017457
0.0180669
0.0184483
0.0185874
0.0186421
0.018768
0.0190089
0.0191839
0.018927
0.0181575
0.0179312
0.017932
0.0180154
0.0182256
0.0182489
0.0178762
0.0176095
0.0176814
0.0182628
0.0160329
0.0194827
0.0181467
0.0181745
0.0172858
0.0170322
0.0173796
0.0177539
0.0181559
0.0183447
0.0185133
0.0186868
0.0189962
0.019185
0.0191748
0.0186427
0.0182395
0.0183042
0.0183324
0.0183033
0.0182363
0.0178744
0.0175652
0.0177308
0.0182765
0.0160062
0.0198641
0.0181551
0.0182126
0.0175213
0.0170297
0.0172742
0.0176458
0.0179648
0.0181626
0.0182728
0.018476
0.0189287
0.0193041
0.0194718
0.0191158
0.0187559
0.018709
0.0186804
0.0185178
0.0181828
0.0178221
0.0175732
0.0177066
0.018254
0.0159256
0.0194827
0.0181162
0.018293
0.0179256
0.0170449
0.0171872
0.0175247
0.0177482
0.0179209
0.018012
0.0183233
0.0188376
0.0193086
0.019675
0.0195626
0.0192363
0.019119
0.0190047
0.0187445
0.0182508
0.0177021
0.017531
0.0176896
0.018336
0.0159677
0.019849
0.0180434
0.0182909
0.0182835
0.0171059
0.0171907
0.0173439
0.0174554
0.0175863
0.0177466
0.0181099
0.0187189
0.0192646
0.0196876
0.0198161
0.0196729
0.0196334
0.01945
0.0189211
0.0182812
0.0177501
0.017517
0.0177054
0.0183554
0.0159406
0.0194827
0.0180528
0.018264
0.0186491
0.0172283
0.0172551
0.0173591
0.0174276
0.0174943
0.0176215
0.0177977
0.0186391
0.0193221
0.0196998
0.0198239
0.0198207
0.019816
0.0197191
0.0192188
0.0182945
0.0177284
0.0175183
0.0177996