/*--------------------------------*- C++ -*----------------------------------*\
| =========                 |                                                 |
| \\      /  F ield         | OpenFOAM: The Open Source CFD Toolbox           |
|  \\    /   O peration     | Version:  5.x                                   |
|   \\  /    A nd           | Web:      www.OpenFOAM.org                      |
|    \\/     M anipulation  |                                                 |
\*---------------------------------------------------------------------------*/
FoamFile
{
    version     2.0;
    format      ascii;
    class       volVectorField;
    location    "100";
    object      U.airMean;
}
// * * * * * * * * * * * * * * * * * * * * * * * * * * * * * * * * * * * * * //

dimensions      [0 1 -1 0 0 0 0];

internalField   nonuniform List<vector> 
3750
(
(0.00421887 0.0873102 0)
(0.000354665 0.0841047 0)
(0.00164726 0.0900508 0)
(0.00312618 0.0876829 0)
(0.00151415 0.0866661 0)
(0.00360323 0.0868788 0)
(0.00401176 0.085556 0)
(0.00373563 0.0817757 0)
(0.00162986 0.0781477 0)
(0.00135852 0.0770034 0)
(0.000296106 0.0821084 0)
(-0.0006516 0.0841994 0)
(-0.00110724 0.0833142 0)
(-0.000518539 0.0821104 0)
(3.55841e-05 0.0835235 0)
(0.00119812 0.0832691 0)
(0.00319081 0.0842756 0)
(0.00208184 0.086102 0)
(0.00355032 0.0887603 0)
(0.00311559 0.0882152 0)
(0.00355603 0.0867448 0)
(0.00198661 0.0810762 0)
(0.0013491 0.0765508 0)
(0.000732432 0.0800616 0)
(-0.00405493 0.0919741 0)
(-0.00692404 0.356698 0)
(-0.00833541 0.357521 0)
(-0.00459013 0.34977 0)
(-0.00288408 0.353701 0)
(-0.00345824 0.353547 0)
(-0.00117125 0.352173 0)
(0.00115739 0.353348 0)
(0.0041863 0.357318 0)
(0.00444549 0.361134 0)
(-3.43365e-05 0.361374 0)
(-0.00112279 0.356557 0)
(0.00200546 0.354742 0)
(0.00275402 0.356026 0)
(0.00233769 0.356079 0)
(0.0025679 0.354531 0)
(0.00606419 0.353373 0)
(0.00785738 0.354728 0)
(0.00728297 0.353777 0)
(0.00881677 0.351151 0)
(0.0122415 0.351875 0)
(0.0150518 0.354572 0)
(0.0163682 0.360187 0)
(0.0157509 0.365203 0)
(0.00337264 0.366722 0)
(-0.0021085 0.350456 0)
(-0.00541401 0.274469 0)
(0.00057706 0.251948 0)
(-0.00497662 0.251871 0)
(-0.00282597 0.255462 0)
(-0.0022532 0.252513 0)
(-8.34737e-05 0.250664 0)
(0.000831278 0.248682 0)
(0.0015028 0.247884 0)
(0.00242489 0.253452 0)
(0.00260232 0.255187 0)
(0.00285386 0.250478 0)
(0.00352796 0.249672 0)
(0.00448023 0.252825 0)
(0.0051085 0.252599 0)
(0.00666515 0.249858 0)
(0.0078906 0.248685 0)
(0.00828683 0.253186 0)
(0.0102291 0.254321 0)
(0.0104056 0.251984 0)
(0.0111735 0.251414 0)
(0.0114894 0.251634 0)
(0.0103091 0.251926 0)
(0.0100576 0.261225 0)
(0.00497841 0.270285 0)
(0.00540181 0.265 0)
(-0.000148116 0.32439 0)
(0.0047882 0.31513 0)
(-0.00149138 0.314119 0)
(0.00267388 0.31213 0)
(0.00171593 0.310383 0)
(0.00283843 0.310401 0)
(0.00306604 0.312906 0)
(0.00323207 0.315435 0)
(0.00337566 0.319182 0)
(0.00375849 0.321034 0)
(0.00211207 0.316034 0)
(0.00302441 0.312662 0)
(0.00541915 0.314225 0)
(0.00761652 0.313878 0)
(0.00998982 0.312917 0)
(0.00928935 0.313164 0)
(0.00921041 0.312888 0)
(0.0125163 0.311754 0)
(0.0135969 0.311861 0)
(0.0126608 0.311936 0)
(0.0140893 0.315113 0)
(0.0102082 0.321103 0)
(0.00695348 0.327254 0)
(0.0033319 0.327371 0)
(0.00534968 0.327789 0)
(0.00116584 0.289449 0)
(0.00426879 0.271979 0)
(0.00165191 0.272353 0)
(0.00475179 0.271581 0)
(0.00430053 0.271293 0)
(0.00525921 0.269522 0)
(0.0049178 0.268007 0)
(0.0056579 0.267105 0)
(0.00591815 0.271974 0)
(0.00722518 0.276261 0)
(0.00811964 0.270369 0)
(0.00739165 0.264901 0)
(0.00836773 0.267169 0)
(0.00957151 0.267117 0)
(0.0107223 0.268037 0)
(0.0107896 0.269611 0)
(0.0118437 0.268959 0)
(0.0126841 0.269133 0)
(0.0127913 0.272417 0)
(0.011856 0.27157 0)
(0.0105004 0.272805 0)
(0.00726108 0.279327 0)
(0.00660371 0.286892 0)
(0.00236133 0.290724 0)
(0.00292506 0.298638 0)
(0.00422293 0.306755 0)
(0.00567691 0.302649 0)
(0.00372261 0.300238 0)
(0.00762829 0.296792 0)
(0.00890049 0.29683 0)
(0.0106488 0.296935 0)
(0.0109868 0.298681 0)
(0.0101757 0.300699 0)
(0.00858809 0.303792 0)
(0.00956418 0.304487 0)
(0.0111927 0.301568 0)
(0.00960641 0.299022 0)
(0.0101435 0.298981 0)
(0.0118456 0.298664 0)
(0.0126071 0.298973 0)
(0.0131606 0.298924 0)
(0.0134747 0.297957 0)
(0.0125485 0.298188 0)
(0.0118979 0.300043 0)
(0.0116731 0.301553 0)
(0.0088475 0.305917 0)
(0.00462104 0.311687 0)
(0.00317829 0.31868 0)
(-0.000447882 0.318701 0)
(0.000414946 0.322099 0)
(0.00255701 0.287678 0)
(0.00516518 0.282548 0)
(0.00657353 0.278998 0)
(0.00916402 0.275662 0)
(0.0104726 0.27735 0)
(0.0119016 0.276852 0)
(0.0123768 0.277686 0)
(0.0130656 0.279469 0)
(0.0131691 0.282025 0)
(0.0142139 0.282491 0)
(0.0151219 0.279607 0)
(0.014302 0.276196 0)
(0.0147302 0.274963 0)
(0.0147927 0.274918 0)
(0.0148404 0.277072 0)
(0.0147923 0.279006 0)
(0.0141458 0.280132 0)
(0.0126857 0.281813 0)
(0.0116773 0.283675 0)
(0.00907283 0.285113 0)
(0.00656388 0.290342 0)
(0.00323197 0.2958 0)
(0.00242353 0.301952 0)
(0.000413219 0.303965 0)
(0.000270435 0.309083 0)
(0.00294527 0.2934 0)
(0.00604688 0.292702 0)
(0.00831996 0.290461 0)
(0.0100145 0.287808 0)
(0.0123651 0.288345 0)
(0.0146784 0.289436 0)
(0.0156601 0.291041 0)
(0.0165917 0.293306 0)
(0.016918 0.295755 0)
(0.0180703 0.29581 0)
(0.0186089 0.294893 0)
(0.0176132 0.293551 0)
(0.0169593 0.293288 0)
(0.0158176 0.293496 0)
(0.0151299 0.293606 0)
(0.0146578 0.294166 0)
(0.0136393 0.295072 0)
(0.0120524 0.29571 0)
(0.0105506 0.298405 0)
(0.00722868 0.301598 0)
(0.00411123 0.306404 0)
(0.000962588 0.310573 0)
(-0.000247156 0.315582 0)
(-0.00147039 0.31588 0)
(-0.00134657 0.316351 0)
(0.00221816 0.282181 0)
(0.00542536 0.280777 0)
(0.00849914 0.278923 0)
(0.0104711 0.275856 0)
(0.0125731 0.275645 0)
(0.0145709 0.276937 0)
(0.0162198 0.279075 0)
(0.017854 0.281885 0)
(0.019133 0.284242 0)
(0.020635 0.284496 0)
(0.0210556 0.283971 0)
(0.0205739 0.282295 0)
(0.0197008 0.281871 0)
(0.0184304 0.28209 0)
(0.0169459 0.283482 0)
(0.0154172 0.285701 0)
(0.0137023 0.288178 0)
(0.0108582 0.289809 0)
(0.0083065 0.292658 0)
(0.00542269 0.295674 0)
(0.00292083 0.300043 0)
(0.000314001 0.303773 0)
(-0.0008634 0.308029 0)
(-0.00151394 0.30896 0)
(-0.00166744 0.308907 0)
(0.00207771 0.283052 0)
(0.00539811 0.282883 0)
(0.00906543 0.281827 0)
(0.0113704 0.279282 0)
(0.0136281 0.279838 0)
(0.0158424 0.281014 0)
(0.0178777 0.284294 0)
(0.0197712 0.287219 0)
(0.0211772 0.289501 0)
(0.0225788 0.290925 0)
(0.0229292 0.29214 0)
(0.0218343 0.29248 0)
(0.0201577 0.293252 0)
(0.0179604 0.29439 0)
(0.0156601 0.294983 0)
(0.0137183 0.295654 0)
(0.0120197 0.297839 0)
(0.00923965 0.300053 0)
(0.00663025 0.30264 0)
(0.00339933 0.305603 0)
(0.000391104 0.309105 0)
(-0.0019458 0.312086 0)
(-0.00331169 0.314784 0)
(-0.00296976 0.31438 0)
(-0.00224532 0.31154 0)
(0.00164324 0.276159 0)
(0.00462382 0.274924 0)
(0.00839775 0.274039 0)
(0.0108829 0.272125 0)
(0.0134934 0.272214 0)
(0.0158117 0.273299 0)
(0.0182506 0.27634 0)
(0.020283 0.279912 0)
(0.0217595 0.282698 0)
(0.0228814 0.284338 0)
(0.0230052 0.286706 0)
(0.0219808 0.287648 0)
(0.0200829 0.288718 0)
(0.017944 0.289813 0)
(0.0156691 0.290674 0)
(0.0133238 0.29167 0)
(0.0110929 0.294483 0)
(0.00826313 0.297452 0)
(0.00523014 0.300799 0)
(0.00177215 0.303716 0)
(-0.00127771 0.307242 0)
(-0.00332478 0.309203 0)
(-0.00432377 0.310607 0)
(-0.0033213 0.309301 0)
(-0.00195834 0.305283 0)
(0.00165465 0.275507 0)
(0.00442353 0.275206 0)
(0.00810976 0.274194 0)
(0.0108136 0.274744 0)
(0.0132522 0.275259 0)
(0.0151763 0.276414 0)
(0.0170855 0.277063 0)
(0.0190356 0.280901 0)
(0.0205104 0.285215 0)
(0.021468 0.288583 0)
(0.0214166 0.29228 0)
(0.0204648 0.29471 0)
(0.0184096 0.297072 0)
(0.0159757 0.298739 0)
(0.0135978 0.299547 0)
(0.0111578 0.300745 0)
(0.00878856 0.303356 0)
(0.0061126 0.305753 0)
(0.00321993 0.309034 0)
(0.000107209 0.312327 0)
(-0.00239649 0.314338 0)
(-0.00392535 0.314953 0)
(-0.00460123 0.31428 0)
(-0.00317563 0.311602 0)
(-0.00160885 0.305765 0)
(0.00149175 0.270856 0)
(0.00422611 0.269587 0)
(0.00766019 0.268434 0)
(0.0102601 0.268576 0)
(0.0125482 0.269237 0)
(0.014188 0.270931 0)
(0.0152631 0.272635 0)
(0.0164641 0.276346 0)
(0.0175922 0.28069 0)
(0.0179837 0.284345 0)
(0.0178237 0.288517 0)
(0.017011 0.291498 0)
(0.0154932 0.294297 0)
(0.0136521 0.296128 0)
(0.0117418 0.296961 0)
(0.00970859 0.298308 0)
(0.00770373 0.301425 0)
(0.00526952 0.304673 0)
(0.00254299 0.307933 0)
(2.39464e-05 0.311133 0)
(-0.00216137 0.312609 0)
(-0.00349518 0.312396 0)
(-0.0037982 0.310551 0)
(-0.00236537 0.307328 0)
(-0.00108433 0.301724 0)
(0.0014441 0.269532 0)
(0.00400244 0.267786 0)
(0.00710861 0.268533 0)
(0.00941937 0.267836 0)
(0.0112116 0.269352 0)
(0.0123565 0.271837 0)
(0.0131117 0.275128 0)
(0.0137416 0.278693 0)
(0.0143873 0.282772 0)
(0.0144379 0.286808 0)
(0.0140413 0.291515 0)
(0.0130912 0.295631 0)
(0.0115525 0.298918 0)
(0.0100405 0.300767 0)
(0.00847424 0.302409 0)
(0.00679367 0.304004 0)
(0.0048205 0.307017 0)
(0.00286177 0.310849 0)
(0.000891468 0.31428 0)
(-0.000731128 0.315665 0)
(-0.00241891 0.316534 0)
(-0.0033085 0.315386 0)
(-0.00348823 0.312388 0)
(-0.00231405 0.30791 0)
(-0.0010462 0.301106 0)
(0.00122433 0.265935 0)
(0.00325922 0.264337 0)
(0.00591836 0.263708 0)
(0.00780502 0.264242 0)
(0.00907286 0.266493 0)
(0.00971963 0.269053 0)
(0.00998621 0.272029 0)
(0.0100111 0.276014 0)
(0.00975047 0.280619 0)
(0.00914543 0.285007 0)
(0.00850336 0.290151 0)
(0.00769611 0.294184 0)
(0.00658993 0.297528 0)
(0.0055501 0.299158 0)
(0.00444393 0.300866 0)
(0.00324969 0.302618 0)
(0.00171975 0.305986 0)
(0.000483457 0.309365 0)
(-0.00049798 0.312563 0)
(-0.0012756 0.314644 0)
(-0.00227925 0.315326 0)
(-0.0026816 0.313884 0)
(-0.00265845 0.310263 0)
(-0.00181674 0.30601 0)
(-0.000770648 0.299575 0)
(0.001013 0.265035 0)
(0.00280497 0.264456 0)
(0.00480962 0.263017 0)
(0.00602276 0.264787 0)
(0.00677069 0.267329 0)
(0.00677681 0.270729 0)
(0.00647797 0.273919 0)
(0.00598437 0.278351 0)
(0.00519473 0.28349 0)
(0.00435567 0.288454 0)
(0.0035186 0.293288 0)
(0.00275059 0.2973 0)
(0.00182562 0.30062 0)
(0.00105095 0.302373 0)
(0.000259328 0.303567 0)
(-0.000479362 0.305837 0)
(-0.00143858 0.309613 0)
(-0.00215635 0.312359 0)
(-0.00252843 0.314875 0)
(-0.00258734 0.31768 0)
(-0.0030177 0.317977 0)
(-0.0029397 0.315537 0)
(-0.00267784 0.311714 0)
(-0.00192517 0.306789 0)
(-0.000689113 0.298967 0)
(0.000640621 0.263308 0)
(0.00190931 0.261179 0)
(0.00305009 0.261527 0)
(0.00355265 0.262985 0)
(0.00376595 0.265909 0)
(0.00324714 0.26958 0)
(0.00266305 0.273015 0)
(0.00162658 0.277649 0)
(0.000581662 0.282662 0)
(-0.000368093 0.287441 0)
(-0.00132477 0.292298 0)
(-0.002023 0.296484 0)
(-0.00260478 0.299379 0)
(-0.00298757 0.301145 0)
(-0.00355058 0.302459 0)
(-0.00409093 0.304714 0)
(-0.00460753 0.30826 0)
(-0.00471584 0.310954 0)
(-0.00458516 0.313154 0)
(-0.0039536 0.315469 0)
(-0.00360732 0.316329 0)
(-0.00315064 0.313733 0)
(-0.00264099 0.309427 0)
(-0.00168716 0.30392 0)
(-0.000474542 0.296676 0)
(0.00039457 0.262581 0)
(0.00106529 0.261675 0)
(0.00151579 0.262316 0)
(0.00144368 0.264459 0)
(0.00106728 0.268202 0)
(0.000225445 0.272082 0)
(-0.000785663 0.275515 0)
(-0.00208328 0.280266 0)
(-0.00344885 0.285615 0)
(-0.00452795 0.289969 0)
(-0.00537726 0.294941 0)
(-0.00599692 0.298328 0)
(-0.00624979 0.301362 0)
(-0.00639688 0.303265 0)
(-0.00664138 0.305078 0)
(-0.00698297 0.307153 0)
(-0.00715095 0.30945 0)
(-0.00704992 0.311517 0)
(-0.006644 0.313716 0)
(-0.00578375 0.315307 0)
(-0.00489583 0.316114 0)
(-0.00398929 0.313947 0)
(-0.00316024 0.309887 0)
(-0.00199773 0.303151 0)
(-0.000591387 0.29701 0)
(4.49707e-05 0.262364 0)
(0.000137771 0.261655 0)
(-0.000215391 0.261842 0)
(-0.000970442 0.263844 0)
(-0.00167261 0.267521 0)
(-0.00276701 0.271861 0)
(-0.00415644 0.275884 0)
(-0.00575375 0.281055 0)
(-0.00736859 0.285971 0)
(-0.00846162 0.289911 0)
(-0.0091825 0.294155 0)
(-0.00949968 0.297423 0)
(-0.00966728 0.30014 0)
(-0.00943839 0.301762 0)
(-0.00927229 0.303198 0)
(-0.00934972 0.305083 0)
(-0.00919897 0.307915 0)
(-0.0087963 0.310347 0)
(-0.00802741 0.312148 0)
(-0.0070067 0.313969 0)
(-0.00587057 0.314587 0)
(-0.00469767 0.311969 0)
(-0.00363125 0.308479 0)
(-0.00209493 0.302133 0)
(-0.00062252 0.294455 0)
(-0.000191043 0.263559 0)
(-0.000699085 0.262886 0)
(-0.00165647 0.264318 0)
(-0.00295738 0.266043 0)
(-0.00417743 0.269377 0)
(-0.00554741 0.273896 0)
(-0.00721354 0.27874 0)
(-0.00888163 0.283988 0)
(-0.0106102 0.288079 0)
(-0.0114607 0.291918 0)
(-0.0117891 0.29513 0)
(-0.0118581 0.298258 0)
(-0.0116652 0.300388 0)
(-0.0111195 0.301423 0)
(-0.0108517 0.303326 0)
(-0.0107702 0.305537 0)
(-0.0104409 0.308816 0)
(-0.00999306 0.310446 0)
(-0.00898085 0.311423 0)
(-0.00795214 0.313039 0)
(-0.00670966 0.31374 0)
(-0.00548338 0.311726 0)
(-0.00419805 0.306332 0)
(-0.00221 0.3008 0)
(-0.000604298 0.29334 0)
(-0.000452617 0.264624 0)
(-0.0015978 0.263939 0)
(-0.00304833 0.265358 0)
(-0.00483686 0.267596 0)
(-0.00642416 0.270589 0)
(-0.0080699 0.275055 0)
(-0.0100386 0.279445 0)
(-0.0117379 0.284539 0)
(-0.013215 0.288475 0)
(-0.0136406 0.290587 0)
(-0.0136837 0.29432 0)
(-0.0135285 0.297088 0)
(-0.0128878 0.299079 0)
(-0.0123728 0.300724 0)
(-0.0119302 0.302967 0)
(-0.0114573 0.304854 0)
(-0.0109707 0.30723 0)
(-0.0102368 0.308689 0)
(-0.00939512 0.309932 0)
(-0.00852651 0.311367 0)
(-0.00752564 0.311427 0)
(-0.00616101 0.309359 0)
(-0.00459265 0.304332 0)
(-0.00247423 0.297394 0)
(-0.000704494 0.292229 0)
(-0.000588844 0.266526 0)
(-0.00198301 0.266496 0)
(-0.00383731 0.26853 0)
(-0.00585097 0.270128 0)
(-0.00775005 0.273061 0)
(-0.00962413 0.278103 0)
(-0.0118459 0.282025 0)
(-0.0134911 0.286782 0)
(-0.014613 0.290006 0)
(-0.0149444 0.291882 0)
(-0.0151532 0.29534 0)
(-0.0146595 0.297396 0)
(-0.0142336 0.298876 0)
(-0.0136789 0.300536 0)
(-0.0129421 0.302358 0)
(-0.0122965 0.304901 0)
(-0.0114278 0.307222 0)
(-0.0106076 0.308732 0)
(-0.00991146 0.309764 0)
(-0.00915556 0.310879 0)
(-0.00821873 0.311747 0)
(-0.00687091 0.308022 0)
(-0.00498531 0.303336 0)
(-0.00264397 0.296281 0)
(-0.000826497 0.289047 0)
(-0.000741214 0.267839 0)
(-0.00237577 0.26838 0)
(-0.00445202 0.270055 0)
(-0.00645146 0.271931 0)
(-0.00869588 0.274988 0)
(-0.010688 0.279574 0)
(-0.0128833 0.283783 0)
(-0.0144294 0.287514 0)
(-0.0156238 0.289939 0)
(-0.01596 0.292231 0)
(-0.0161499 0.294293 0)
(-0.0155376 0.296343 0)
(-0.015437 0.298032 0)
(-0.0145909 0.298714 0)
(-0.013901 0.30087 0)
(-0.0129375 0.303066 0)
(-0.0119623 0.305955 0)
(-0.0112333 0.307329 0)
(-0.0106897 0.308578 0)
(-0.0102191 0.30952 0)
(-0.00917118 0.309178 0)
(-0.00726513 0.306242 0)
(-0.00532699 0.299895 0)
(-0.00271639 0.294121 0)
(-0.00071659 0.287826 0)
(-0.000771623 0.270729 0)
(-0.00232348 0.271198 0)
(-0.00437106 0.273198 0)
(-0.00642579 0.275549 0)
(-0.00865769 0.278138 0)
(-0.0109361 0.282457 0)
(-0.013301 0.285956 0)
(-0.0148013 0.289602 0)
(-0.0160471 0.291814 0)
(-0.0164179 0.292367 0)
(-0.0164042 0.294257 0)
(-0.0163903 0.296096 0)
(-0.0160262 0.297632 0)
(-0.0152501 0.29865 0)
(-0.0149003 0.300842 0)
(-0.0140229 0.301876 0)
(-0.0130704 0.304464 0)
(-0.0123692 0.306748 0)
(-0.0121024 0.308733 0)
(-0.0113546 0.309866 0)
(-0.0100526 0.307165 0)
(-0.007846 0.303731 0)
(-0.00554156 0.297825 0)
(-0.00294741 0.290498 0)
(-0.000864506 0.287332 0)
(-0.0007063 0.271904 0)
(-0.00211177 0.272533 0)
(-0.0040856 0.275311 0)
(-0.00596097 0.277104 0)
(-0.00826533 0.280171 0)
(-0.0106196 0.285263 0)
(-0.0128978 0.287923 0)
(-0.0143185 0.290959 0)
(-0.0154341 0.292062 0)
(-0.0158041 0.292015 0)
(-0.0161481 0.294845 0)
(-0.0162526 0.296176 0)
(-0.0162768 0.296955 0)
(-0.0159512 0.297855 0)
(-0.0158115 0.299643 0)
(-0.0152652 0.301433 0)
(-0.014449 0.304265 0)
(-0.0137613 0.306594 0)
(-0.0133011 0.307245 0)
(-0.0120106 0.307328 0)
(-0.0103035 0.307059 0)
(-0.00791828 0.300999 0)
(-0.00552188 0.295296 0)
(-0.00288641 0.288563 0)
(-0.000942005 0.283313 0)
(-0.000626071 0.273018 0)
(-0.00173188 0.274874 0)
(-0.00337969 0.277327 0)
(-0.00499249 0.279852 0)
(-0.00732024 0.283339 0)
(-0.00954954 0.287433 0)
(-0.0114202 0.290184 0)
(-0.0128062 0.291948 0)
(-0.0139704 0.293105 0)
(-0.014816 0.29403 0)
(-0.0154677 0.295359 0)
(-0.0159547 0.297186 0)
(-0.0164002 0.298423 0)
(-0.0165522 0.298511 0)
(-0.016843 0.299725 0)
(-0.0162802 0.300985 0)
(-0.0155964 0.303446 0)
(-0.0146284 0.305523 0)
(-0.013564 0.306398 0)
(-0.0124118 0.305271 0)
(-0.0104563 0.303195 0)
(-0.00769896 0.298348 0)
(-0.0054501 0.29211 0)
(-0.00281489 0.287115 0)
(-0.000777728 0.281757 0)
(-0.000631619 0.275444 0)
(-0.00143931 0.276305 0)
(-0.00261355 0.278795 0)
(-0.00394865 0.281656 0)
(-0.00595349 0.285292 0)
(-0.00790419 0.289008 0)
(-0.00956135 0.291122 0)
(-0.0109672 0.293557 0)
(-0.0124141 0.294871 0)
(-0.0136333 0.294729 0)
(-0.0146369 0.296673 0)
(-0.0158964 0.298115 0)
(-0.0166298 0.298362 0)
(-0.0170128 0.299166 0)
(-0.0173558 0.299457 0)
(-0.0168566 0.298921 0)
(-0.0159984 0.301191 0)
(-0.0148826 0.30362 0)
(-0.0134648 0.30535 0)
(-0.0116987 0.304958 0)
(-0.00952885 0.299573 0)
(-0.0070929 0.295109 0)
(-0.00483839 0.289387 0)
(-0.00257762 0.283237 0)
(-0.000758715 0.280909 0)
(-0.000417485 0.276308 0)
(-0.00110766 0.276679 0)
(-0.0021677 0.280687 0)
(-0.00307886 0.283201 0)
(-0.00495238 0.287299 0)
(-0.00654608 0.292144 0)
(-0.00811318 0.293856 0)
(-0.00936055 0.296182 0)
(-0.0107878 0.296869 0)
(-0.0125098 0.296353 0)
(-0.0139439 0.298639 0)
(-0.0152232 0.299864 0)
(-0.0162671 0.298669 0)
(-0.0168516 0.298615 0)
(-0.0170603 0.299317 0)
(-0.0166842 0.298819 0)
(-0.0158361 0.30132 0)
(-0.0144697 0.302768 0)
(-0.012869 0.302864 0)
(-0.010515 0.301317 0)
(-0.00815694 0.299581 0)
(-0.00586722 0.294437 0)
(-0.00386573 0.288178 0)
(-0.002117 0.281391 0)
(-0.000665806 0.278059 0)
(-0.000326477 0.275833 0)
(-0.00101508 0.278002 0)
(-0.00202769 0.280684 0)
(-0.00277232 0.284843 0)
(-0.00434043 0.289429 0)
(-0.00544335 0.292613 0)
(-0.00675461 0.295152 0)
(-0.00794071 0.297014 0)
(-0.00927976 0.298766 0)
(-0.0111254 0.298809 0)
(-0.0128245 0.299551 0)
(-0.0139663 0.30036 0)
(-0.0149307 0.300824 0)
(-0.0157371 0.299761 0)
(-0.0158909 0.299371 0)
(-0.0153786 0.298923 0)
(-0.0144931 0.299645 0)
(-0.0127768 0.300674 0)
(-0.0110436 0.300249 0)
(-0.00874879 0.297826 0)
(-0.00679308 0.295037 0)
(-0.00434903 0.290737 0)
(-0.00271337 0.286093 0)
(-0.00151418 0.281772 0)
(-0.000412277 0.277546 0)
(-0.000382243 0.278699 0)
(-0.000931024 0.280209 0)
(-0.00180223 0.282101 0)
(-0.0029523 0.285915 0)
(-0.00392683 0.28996 0)
(-0.00455742 0.293906 0)
(-0.00576743 0.29602 0)
(-0.00679468 0.298524 0)
(-0.0081135 0.300439 0)
(-0.00954155 0.301011 0)
(-0.0111344 0.302524 0)
(-0.0125441 0.301885 0)
(-0.013373 0.30125 0)
(-0.0137654 0.300873 0)
(-0.0136137 0.298806 0)
(-0.0127524 0.297054 0)
(-0.0117535 0.297717 0)
(-0.01037 0.298265 0)
(-0.00847047 0.297986 0)
(-0.00625653 0.296938 0)
(-0.00433325 0.292292 0)
(-0.00293972 0.287414 0)
(-0.00179676 0.284159 0)
(-0.000939787 0.280112 0)
(-0.000233733 0.277575 0)
(-0.0001891 0.278966 0)
(-0.000716904 0.279445 0)
(-0.00160909 0.283454 0)
(-0.002659 0.286216 0)
(-0.00363938 0.290115 0)
(-0.00413155 0.295607 0)
(-0.00484832 0.297453 0)
(-0.00573551 0.300231 0)
(-0.0066864 0.301807 0)
(-0.0080935 0.302043 0)
(-0.00924716 0.303369 0)
(-0.0101543 0.303777 0)
(-0.0110383 0.301325 0)
(-0.0113162 0.299506 0)
(-0.0109132 0.298228 0)
(-0.0100911 0.29579 0)
(-0.0088638 0.296738 0)
(-0.00750763 0.29681 0)
(-0.00577655 0.295897 0)
(-0.00399586 0.293972 0)
(-0.00232445 0.292781 0)
(-0.00139581 0.289153 0)
(-0.00096787 0.284378 0)
(-0.000394268 0.278481 0)
(-0.000125133 0.276267 0)
(-0.000123197 0.277997 0)
(-0.000756382 0.280705 0)
(-0.0014825 0.284706 0)
(-0.00244012 0.288265 0)
(-0.00302587 0.292399 0)
(-0.0034792 0.294656 0)
(-0.0038055 0.298782 0)
(-0.00453366 0.301036 0)
(-0.00520488 0.303728 0)
(-0.00633709 0.303764 0)
(-0.0073523 0.303574 0)
(-0.00801294 0.303795 0)
(-0.00830304 0.30298 0)
(-0.00860769 0.299743 0)
(-0.00822885 0.29749 0)
(-0.00743272 0.295296 0)
(-0.00640774 0.295069 0)
(-0.0051067 0.295466 0)
(-0.00349888 0.294687 0)
(-0.00223545 0.292788 0)
(-0.00147493 0.290471 0)
(-0.000595394 0.287986 0)
(-0.000211396 0.283944 0)
(-9.55495e-05 0.280369 0)
(-5.47684e-05 0.277279 0)
(-0.000144231 0.280767 0)
(-0.000583555 0.282336 0)
(-0.000815717 0.284826 0)
(-0.00167629 0.288249 0)
(-0.00184593 0.291363 0)
(-0.00188898 0.295715 0)
(-0.00260379 0.298396 0)
(-0.0029456 0.301057 0)
(-0.00388685 0.303889 0)
(-0.00456003 0.305083 0)
(-0.00527707 0.306137 0)
(-0.00613548 0.304137 0)
(-0.00616294 0.301956 0)
(-0.00589973 0.299912 0)
(-0.00555051 0.296145 0)
(-0.00503012 0.293628 0)
(-0.0042774 0.294069 0)
(-0.00337581 0.29352 0)
(-0.00194003 0.292845 0)
(-0.00104748 0.292578 0)
(-0.00046726 0.289786 0)
(-0.000104012 0.286489 0)
(-1.15819e-05 0.283766 0)
(4.5198e-06 0.279832 0)
(3.57072e-06 0.276959 0)
(0.000165351 0.280392 0)
(7.18674e-05 0.281192 0)
(0.000148347 0.285426 0)
(-0.000179613 0.28854 0)
(-0.000307486 0.29094 0)
(-0.000354196 0.297259 0)
(-0.000649861 0.299436 0)
(-0.00134903 0.303199 0)
(-0.00205872 0.305264 0)
(-0.00302067 0.305044 0)
(-0.00358315 0.305897 0)
(-0.0039462 0.304874 0)
(-0.00420695 0.301268 0)
(-0.00391331 0.298623 0)
(-0.00343249 0.296974 0)
(-0.0031655 0.293654 0)
(-0.00264511 0.293675 0)
(-0.00202532 0.292939 0)
(-0.00119348 0.292097 0)
(-0.000662723 0.291474 0)
(3.0684e-05 0.291043 0)
(6.93822e-05 0.287748 0)
(9.19626e-05 0.284919 0)
(0.000255528 0.278761 0)
(1.66443e-05 0.276708 0)
(0.000245296 0.278207 0)
(0.000392134 0.281514 0)
(0.000938671 0.286468 0)
(0.00120669 0.289742 0)
(0.0015482 0.293013 0)
(0.00136683 0.295772 0)
(0.00136002 0.301132 0)
(0.000599497 0.303826 0)
(0.000126259 0.3066 0)
(-0.000572349 0.305992 0)
(-0.00143821 0.305139 0)
(-0.00209776 0.304585 0)
(-0.00231227 0.30267 0)
(-0.00243232 0.298737 0)
(-0.00205434 0.29587 0)
(-0.00163899 0.293838 0)
(-0.00136966 0.293125 0)
(-0.00108699 0.292898 0)
(-0.000778004 0.292132 0)
(-0.000290027 0.291171 0)
(0.000104244 0.289414 0)
(0.000174362 0.287045 0)
(0.000404747 0.283415 0)
(0.000315881 0.280802 0)
(-3.94362e-05 0.278118 0)
(0.000327298 0.280108 0)
(0.000911857 0.281373 0)
(0.00199641 0.28431 0)
(0.00274428 0.288163 0)
(0.00349932 0.291666 0)
(0.00382878 0.296691 0)
(0.00341984 0.300305 0)
(0.00324402 0.303112 0)
(0.00234708 0.305785 0)
(0.00176548 0.306969 0)
(0.000866366 0.308039 0)
(-0.000473848 0.304871 0)
(-0.00081285 0.301453 0)
(-0.000769019 0.299017 0)
(-0.000671351 0.295239 0)
(-0.000616769 0.29333 0)
(-0.000433746 0.293834 0)
(-0.00031563 0.293024 0)
(-0.000152784 0.29164 0)
(0.000280826 0.29093 0)
(0.000671611 0.288801 0)
(0.000726987 0.286843 0)
(0.000495034 0.283846 0)
(0.000228419 0.280855 0)
(8.35493e-05 0.277248 0)
(0.000663542 0.278382 0)
(0.00172361 0.279362 0)
(0.00312403 0.282972 0)
(0.00435248 0.286647 0)
(0.00554346 0.290794 0)
(0.00613495 0.297686 0)
(0.00623679 0.300571 0)
(0.00572636 0.304888 0)
(0.00516382 0.306898 0)
(0.00412881 0.306637 0)
(0.00314129 0.307165 0)
(0.00217385 0.305694 0)
(0.00116831 0.301235 0)
(0.000745595 0.298268 0)
(0.000669192 0.297051 0)
(0.000430282 0.293699 0)
(0.000370573 0.293498 0)
(0.000513554 0.292948 0)
(0.000439512 0.292143 0)
(0.0007709 0.290406 0)
(0.00108103 0.290243 0)
(0.00104404 0.28796 0)
(0.000615352 0.285184 0)
(0.000403739 0.279691 0)
(0.000128678 0.277832 0)
(0.000675588 0.275212 0)
(0.00195508 0.278734 0)
(0.00383025 0.283212 0)
(0.00557174 0.286323 0)
(0.00724805 0.290522 0)
(0.00805624 0.295276 0)
(0.00861514 0.301701 0)
(0.00833693 0.304885 0)
(0.00795415 0.308106 0)
(0.00735673 0.307798 0)
(0.00600019 0.306914 0)
(0.00476481 0.306241 0)
(0.00367369 0.303891 0)
(0.00256949 0.299411 0)
(0.0020198 0.29631 0)
(0.00160434 0.294485 0)
(0.00118858 0.293673 0)
(0.00101345 0.293147 0)
(0.000908096 0.292084 0)
(0.00105401 0.290597 0)
(0.00118829 0.2892 0)
(0.00123795 0.287619 0)
(0.000891476 0.284692 0)
(0.000377234 0.281732 0)
(4.6357e-05 0.279183 0)
(0.000655193 0.276055 0)
(0.00207459 0.276552 0)
(0.00448731 0.279138 0)
(0.0064988 0.283707 0)
(0.00856806 0.287832 0)
(0.00976573 0.294822 0)
(0.0102516 0.299922 0)
(0.0105707 0.303767 0)
(0.0103011 0.306652 0)
(0.00987394 0.308207 0)
(0.00879512 0.310503 0)
(0.00719394 0.307239 0)
(0.00593942 0.303396 0)
(0.00476336 0.300579 0)
(0.0035434 0.297149 0)
(0.00265631 0.29507 0)
(0.00205531 0.295368 0)
(0.00155601 0.293732 0)
(0.00151454 0.291415 0)
(0.00166926 0.290793 0)
(0.00157325 0.288926 0)
(0.00137727 0.287714 0)
(0.000909723 0.286136 0)
(0.000457028 0.282381 0)
(0.000215649 0.278058 0)
(0.000880096 0.273948 0)
(0.00254988 0.273489 0)
(0.0047344 0.276558 0)
(0.0069841 0.280541 0)
(0.00915588 0.286312 0)
(0.0105676 0.294593 0)
(0.0115326 0.299553 0)
(0.0117906 0.30527 0)
(0.0119947 0.307764 0)
(0.0113342 0.30813 0)
(0.0106663 0.309489 0)
(0.00947464 0.30865 0)
(0.00784183 0.304662 0)
(0.00625004 0.301639 0)
(0.00490442 0.299981 0)
(0.00365812 0.296239 0)
(0.00273615 0.295373 0)
(0.0022042 0.294374 0)
(0.00196403 0.292774 0)
(0.00208387 0.290691 0)
(0.00201774 0.29111 0)
(0.00147123 0.288901 0)
(0.000922555 0.286113 0)
(0.000700483 0.281291 0)
(0.000272749 0.279454 0)
(0.000802574 0.270608 0)
(0.00235654 0.272783 0)
(0.00456879 0.276473 0)
(0.00689037 0.279102 0)
(0.00910322 0.284809 0)
(0.0106927 0.29233 0)
(0.011851 0.299887 0)
(0.0123438 0.303947 0)
(0.0126799 0.307947 0)
(0.0125708 0.309341 0)
(0.011559 0.30961 0)
(0.0103953 0.309427 0)
(0.00906104 0.307814 0)
(0.00733119 0.304219 0)
(0.00586537 0.300191 0)
(0.00464893 0.297781 0)
(0.00332336 0.296583 0)
(0.00262111 0.295375 0)
(0.00254566 0.292761 0)
(0.00260356 0.290893 0)
(0.00245064 0.28993 0)
(0.00199669 0.289211 0)
(0.00129031 0.286159 0)
(0.000454354 0.282916 0)
(0.000122683 0.281077 0)
(0.000636852 0.27108 0)
(0.00216984 0.270921 0)
(0.00434079 0.272266 0)
(0.00629792 0.277391 0)
(0.00849675 0.281891 0)
(0.00998142 0.291483 0)
(0.0111707 0.29749 0)
(0.0117436 0.302396 0)
(0.0121189 0.306399 0)
(0.0120096 0.309288 0)
(0.0117218 0.312865 0)
(0.0104757 0.310972 0)
(0.00931199 0.307836 0)
(0.00801228 0.305182 0)
(0.00639849 0.302071 0)
(0.00500436 0.299829 0)
(0.00380061 0.298392 0)
(0.00320318 0.295377 0)
(0.0034645 0.291739 0)
(0.00352929 0.291161 0)
(0.00293697 0.290082 0)
(0.00194504 0.290331 0)
(0.00120303 0.288889 0)
(0.000472223 0.284159 0)
(0.000193718 0.279219 0)
(0.000731693 0.269185 0)
(0.00235528 0.268027 0)
(0.00394314 0.270183 0)
(0.00541894 0.274361 0)
(0.00714694 0.281051 0)
(0.00845417 0.289411 0)
(0.00962166 0.296577 0)
(0.010215 0.303295 0)
(0.0107302 0.307141 0)
(0.0107359 0.308715 0)
(0.0106329 0.311516 0)
(0.0101616 0.312223 0)
(0.00905366 0.309155 0)
(0.00768509 0.306165 0)
(0.00619416 0.304488 0)
(0.00512416 0.300646 0)
(0.0043043 0.298472 0)
(0.00423199 0.294747 0)
(0.00444648 0.292723 0)
(0.00392705 0.291858 0)
(0.00310712 0.293617 0)
(0.00153311 0.291302 0)
(0.000853041 0.288075 0)
(0.00056248 0.283893 0)
(0.000246266 0.28109 0)
(0.000709483 0.266445 0)
(0.00207991 0.267512 0)
(0.00361062 0.271171 0)
(0.00467546 0.272591 0)
(0.00583368 0.2797 0)
(0.00673693 0.287613 0)
(0.00758911 0.296742 0)
(0.00836774 0.302352 0)
(0.0088359 0.306557 0)
(0.00928735 0.309705 0)
(0.00872669 0.311466 0)
(0.00848 0.312016 0)
(0.00764401 0.311423 0)
(0.006532 0.309125 0)
(0.00556449 0.304373 0)
(0.00507325 0.300678 0)
(0.00492371 0.299255 0)
(0.0049745 0.295773 0)
(0.00471101 0.293332 0)
(0.00366576 0.293057 0)
(0.00257817 0.293455 0)
(0.00131033 0.29262 0)
(0.00057965 0.288766 0)
(0.000125834 0.284587 0)
(9.37196e-05 0.282428 0)
(0.00061379 0.266799 0)
(0.001855 0.266389 0)
(0.00327844 0.268252 0)
(0.00404535 0.272969 0)
(0.00447281 0.277844 0)
(0.00501283 0.288494 0)
(0.00540804 0.294678 0)
(0.00590453 0.300409 0)
(0.00619426 0.305311 0)
(0.0063581 0.309218 0)
(0.00619479 0.313775 0)
(0.00578046 0.31331 0)
(0.00527701 0.31113 0)
(0.00509095 0.308766 0)
(0.00479912 0.30507 0)
(0.00477705 0.301734 0)
(0.00511083 0.298767 0)
(0.00491943 0.295953 0)
(0.00425948 0.293612 0)
(0.00286573 0.294311 0)
(0.00147761 0.294247 0)
(0.000576567 0.294139 0)
(0.000319356 0.291248 0)
(0.000154467 0.284691 0)
(0.000158004 0.280097 0)
(0.000611138 0.265319 0)
(0.00182153 0.264726 0)
(0.00255976 0.26725 0)
(0.00291675 0.27254 0)
(0.00294633 0.278658 0)
(0.00303543 0.28702 0)
(0.00308705 0.294427 0)
(0.00297802 0.301096 0)
(0.00290631 0.306102 0)
(0.00285208 0.308514 0)
(0.00301225 0.312347 0)
(0.00316607 0.31417 0)
(0.003108 0.311349 0)
(0.00333279 0.307836 0)
(0.00367353 0.305475 0)
(0.00425741 0.300636 0)
(0.00433149 0.298197 0)
(0.00397152 0.295931 0)
(0.00287534 0.295913 0)
(0.00141379 0.296189 0)
(0.00048535 0.297473 0)
(-0.000219616 0.294105 0)
(3.96973e-05 0.288772 0)
(0.000226347 0.284582 0)
(0.000140456 0.282252 0)
(0.000454908 0.263477 0)
(0.0010802 0.264606 0)
(0.00141915 0.269075 0)
(0.00132656 0.27172 0)
(0.000901668 0.278757 0)
(0.000488414 0.286571 0)
(0.000179462 0.295615 0)
(-5.98602e-05 0.301553 0)
(-0.000215013 0.305613 0)
(-0.000157014 0.30951 0)
(-0.00016093 0.311849 0)
(0.000334719 0.312369 0)
(0.000909718 0.311759 0)
(0.0015254 0.308865 0)
(0.00226653 0.303814 0)
(0.00275501 0.299806 0)
(0.0025733 0.299898 0)
(0.00186373 0.297737 0)
(0.000559837 0.297358 0)
(-0.000420713 0.29684 0)
(-0.000701209 0.296328 0)
(-0.000468647 0.293881 0)
(-0.000223749 0.289017 0)
(-0.00019702 0.284848 0)
(-4.29329e-05 0.283048 0)
(0.000111019 0.264676 0)
(0.000157703 0.264876 0)
(-9.82208e-05 0.267897 0)
(-0.00069294 0.273498 0)
(-0.0016735 0.278237 0)
(-0.00222195 0.288578 0)
(-0.00297059 0.294809 0)
(-0.00315516 0.3008 0)
(-0.00323686 0.305419 0)
(-0.00329887 0.308967 0)
(-0.00263433 0.313188 0)
(-0.00230093 0.31235 0)
(-0.0014374 0.309744 0)
(-0.000427884 0.307207 0)
(0.000199605 0.303891 0)
(0.000165604 0.301782 0)
(-2.40517e-05 0.300137 0)
(-0.000756963 0.299455 0)
(-0.00168636 0.29772 0)
(-0.00190683 0.297474 0)
(-0.00184219 0.295642 0)
(-0.00116325 0.293452 0)
(-0.000437685 0.290819 0)
(-0.00019075 0.28462 0)
(1.10149e-05 0.280254 0)
(-0.000177381 0.265391 0)
(-0.000580202 0.265423 0)
(-0.00168954 0.26859 0)
(-0.00282128 0.274113 0)
(-0.00401313 0.280132 0)