/*--------------------------------*- C++ -*----------------------------------*\
| =========                 |                                                 |
| \\      /  F ield         | OpenFOAM: The Open Source CFD Toolbox           |
|  \\    /   O peration     | Version:  5.x                                   |
|   \\  /    A nd           | Web:      www.OpenFOAM.org                      |
|    \\/     M anipulation  |                                                 |
\*---------------------------------------------------------------------------*/
FoamFile
{
    version     2.0;
    format      ascii;
    class       volVectorField;
    location    "100";
    object      U.waterMean;
}
// * * * * * * * * * * * * * * * * * * * * * * * * * * * * * * * * * * * * * //

dimensions      [0 1 -1 0 0 0 0];

internalField   nonuniform List<vector> 
3750
(
(0.000231618 -0.128357 0)
(-0.00303547 -0.130409 0)
(-0.000893298 -0.126528 0)
(0.000746964 -0.128641 0)
(-0.000247537 -0.129787 0)
(0.00200446 -0.130264 0)
(0.00304049 -0.131925 0)
(0.00389852 -0.135484 0)
(0.00268092 -0.139207 0)
(0.000845266 -0.140454 0)
(0.000100921 -0.134459 0)
(0.000978121 -0.131793 0)
(0.00108815 -0.133116 0)
(0.00123214 -0.134401 0)
(0.00177507 -0.133259 0)
(0.00348072 -0.133123 0)
(0.00516274 -0.132115 0)
(0.00469928 -0.129884 0)
(0.00630597 -0.127724 0)
(0.00729375 -0.127812 0)
(0.00873434 -0.129807 0)
(0.00732315 -0.136517 0)
(0.00614385 -0.141151 0)
(0.001092 -0.135866 0)
(-0.00356592 -0.126055 0)
(-0.011556 0.0903703 0)
(-0.0106298 0.0899422 0)
(-0.0070483 0.0799668 0)
(-0.00645385 0.0859003 0)
(-0.00585879 0.0859223 0)
(-0.00352559 0.0846807 0)
(-0.00129236 0.0870834 0)
(0.00254538 0.0933207 0)
(0.00466318 0.0996805 0)
(-0.000233688 0.100541 0)
(-0.000916275 0.0915589 0)
(0.00318521 0.0880068 0)
(0.0046247 0.0901214 0)
(0.00431576 0.090835 0)
(0.00464014 0.0882309 0)
(0.00822974 0.0867107 0)
(0.0092102 0.0881283 0)
(0.00942573 0.0861009 0)
(0.0105427 0.0820194 0)
(0.0145775 0.082678 0)
(0.0172451 0.0867628 0)
(0.0202598 0.0966215 0)
(0.0197332 0.104667 0)
(0.00747114 0.10428 0)
(0.00332023 0.0822165 0)
(-0.00738576 -0.0331188 0)
(0.0039779 -0.0639103 0)
(-0.00468199 -0.0609873 0)
(-0.00312596 -0.0579242 0)
(-0.00187391 -0.061871 0)
(0.000244155 -0.0639387 0)
(0.000106535 -0.0672765 0)
(-9.22777e-05 -0.0700797 0)
(0.00184069 -0.0638491 0)
(0.00377813 -0.0617547 0)
(0.00453459 -0.0660739 0)
(0.0041975 -0.0663152 0)
(0.00591674 -0.0623607 0)
(0.00705535 -0.0627224 0)
(0.00922086 -0.0656875 0)
(0.00930558 -0.0672608 0)
(0.00863883 -0.0614551 0)
(0.012432 -0.0596694 0)
(0.0116682 -0.0617887 0)
(0.0107814 -0.0632254 0)
(0.0099273 -0.0638694 0)
(0.00803843 -0.065946 0)
(0.00758801 -0.0541952 0)
(0.00716842 -0.0422974 0)
(0.0112455 -0.0440322 0)
(0.00113754 0.0436416 0)
(0.00599387 0.0405865 0)
(0.000228449 0.0381898 0)
(0.0049167 0.0341837 0)
(0.00347581 0.0326516 0)
(0.00428297 0.0333962 0)
(0.00357929 0.0377523 0)
(0.00392316 0.0420436 0)
(0.00407633 0.0450864 0)
(0.0047197 0.0467983 0)
(0.00282647 0.0414097 0)
(0.00432997 0.0369449 0)
(0.00729231 0.0382308 0)
(0.00979107 0.0375493 0)
(0.0123356 0.037319 0)
(0.0105933 0.0379755 0)
(0.0102782 0.0359727 0)
(0.0140092 0.0336895 0)
(0.0149548 0.0345142 0)
(0.0127388 0.0349671 0)
(0.0143903 0.0394718 0)
(0.0104165 0.0482498 0)
(0.00659775 0.0530264 0)
(0.00404799 0.0495373 0)
(0.00749668 0.0514357 0)
(0.00172307 -0.0100566 0)
(0.00335611 -0.0296251 0)
(0.00286008 -0.0287688 0)
(0.00550635 -0.0287353 0)
(0.00539807 -0.0283427 0)
(0.00616559 -0.0307814 0)
(0.00577213 -0.0340797 0)
(0.00715188 -0.0361972 0)
(0.00737007 -0.0311918 0)
(0.00900571 -0.0258578 0)
(0.0116095 -0.0319202 0)
(0.0102257 -0.0380812 0)
(0.0105168 -0.0358666 0)
(0.0111322 -0.035675 0)
(0.0115727 -0.0341785 0)
(0.0118592 -0.0319457 0)
(0.0134517 -0.0329519 0)
(0.0130484 -0.0321845 0)
(0.0125576 -0.0278427 0)
(0.0114189 -0.0288192 0)
(0.00896215 -0.0284392 0)
(0.00652394 -0.0210566 0)
(0.00654363 -0.0135902 0)
(0.00213895 -0.00835394 0)
(0.00213098 0.00165157 0)
(0.00525651 0.0178359 0)
(0.00564624 0.0185704 0)
(0.00441792 0.0150646 0)
(0.00830054 0.0105004 0)
(0.0103823 0.010378 0)
(0.0126915 0.0112458 0)
(0.0135626 0.0145916 0)
(0.0123948 0.0176574 0)
(0.0105407 0.020134 0)
(0.0114533 0.0194602 0)
(0.013943 0.017665 0)
(0.0122608 0.0163182 0)
(0.012386 0.0156459 0)
(0.0140813 0.0151185 0)
(0.0142555 0.0152598 0)
(0.0147675 0.0143164 0)
(0.014565 0.0134128 0)
(0.0125474 0.0135306 0)
(0.0110864 0.0147192 0)
(0.0113151 0.0171076 0)
(0.0078536 0.0229907 0)
(0.00367738 0.0280658 0)
(0.0022277 0.0350033 0)
(-0.000858202 0.0334335 0)
(-0.000366118 0.0346088 0)
(0.00175539 -0.00938723 0)
(0.00483675 -0.0144979 0)
(0.00795604 -0.0184097 0)
(0.00980376 -0.0215718 0)
(0.0112065 -0.0192509 0)
(0.0124886 -0.0197682 0)
(0.0132516 -0.0190653 0)
(0.0146888 -0.017162 0)
(0.0157632 -0.0147646 0)
(0.0171583 -0.0145125 0)
(0.0179007 -0.0176179 0)
(0.0176154 -0.0215521 0)
(0.0177383 -0.0234209 0)
(0.0168091 -0.0235264 0)
(0.0162992 -0.0207324 0)
(0.0159254 -0.0181577 0)
(0.0147358 -0.0161549 0)
(0.0128369 -0.014167 0)
(0.011501 -0.0123291 0)
(0.00782413 -0.0108501 0)
(0.00555756 -0.00531618 0)
(0.00257899 0.000143532 0)
(0.00197352 0.00596834 0)
(0.00073799 0.00849231 0)
(8.13201e-06 0.0136054 0)
(0.00277124 0.00206416 0)
(0.00582309 0.00253661 0)
(0.00843461 0.000734764 0)
(0.00943138 -0.00204339 0)
(0.0121947 -0.00187472 0)
(0.0152494 -0.000289824 0)
(0.016624 0.00212821 0)
(0.0181514 0.00469846 0)
(0.0190533 0.00710038 0)
(0.0206124 0.00719764 0)
(0.0213596 0.00702668 0)
(0.0206298 0.00654297 0)
(0.0195488 0.00667391 0)
(0.0175448 0.00724689 0)
(0.0161182 0.00663438 0)
(0.0150548 0.00683923 0)
(0.0133942 0.00735031 0)
(0.0113788 0.00786039 0)
(0.0094667 0.0109235 0)
(0.006031 0.0146659 0)
(0.00299976 0.0189623 0)
(0.000528647 0.0229291 0)
(-0.000758007 0.0273446 0)
(-0.0015853 0.0272443 0)
(-0.0018026 0.0268428 0)
(0.00177583 -0.0132932 0)
(0.00478667 -0.0148368 0)
(0.00821326 -0.0165203 0)
(0.0103393 -0.0196203 0)
(0.012281 -0.0197542 0)
(0.0141794 -0.0183252 0)
(0.0165607 -0.0158113 0)
(0.0186483 -0.0129436 0)
(0.0205675 -0.0107929 0)
(0.0222081 -0.0103668 0)
(0.0225894 -0.0107654 0)
(0.0222284 -0.0126653 0)
(0.0210937 -0.0132005 0)
(0.019747 -0.0130678 0)
(0.0178157 -0.0114664 0)
(0.0158018 -0.00875606 0)
(0.0138867 -0.00580223 0)
(0.0104782 -0.00357817 0)
(0.00740029 -0.000366655 0)
(0.00456324 0.00252573 0)
(0.00200337 0.00700047 0)
(-0.000218339 0.0104557 0)
(-0.00133631 0.0143222 0)
(-0.00145296 0.0152556 0)
(-0.00178717 0.0152208 0)
(0.00183292 -0.00895712 0)
(0.00480107 -0.00857117 0)
(0.00843231 -0.00931285 0)
(0.0108017 -0.0106351 0)
(0.0130178 -0.0101285 0)
(0.0153912 -0.00915371 0)
(0.0179103 -0.00721509 0)
(0.0203027 -0.00418648 0)
(0.0221246 -0.00139061 0)
(0.0236656 0.000460059 0)
(0.0242518 0.00239532 0)
(0.0230872 0.00343691 0)
(0.0210503 0.00475389 0)
(0.0183885 0.00617758 0)
(0.015448 0.00652273 0)
(0.0130475 0.00683385 0)
(0.011203 0.00899647 0)
(0.0083899 0.0110122 0)
(0.0056722 0.013411 0)
(0.00243068 0.0166705 0)
(-0.000498053 0.0201592 0)
(-0.00253907 0.0227617 0)
(-0.00370275 0.0248709 0)
(-0.00302495 0.0241099 0)
(-0.00221782 0.0197123 0)
(0.00146715 -0.0180824 0)
(0.00403737 -0.01963 0)
(0.00758765 -0.020474 0)
(0.0101667 -0.0219455 0)
(0.0127919 -0.0221356 0)
(0.0150172 -0.0208898 0)
(0.0173043 -0.0183529 0)
(0.0194938 -0.0145563 0)
(0.0210961 -0.0114634 0)
(0.0221372 -0.00961953 0)
(0.0222503 -0.00692458 0)
(0.021555 -0.00574287 0)
(0.0198453 -0.00467084 0)
(0.0178118 -0.00347136 0)
(0.0157557 -0.00233714 0)
(0.0132807 -0.000901914 0)
(0.0106168 0.0023075 0)
(0.0078165 0.00542769 0)
(0.00454437 0.00894109 0)
(0.000978553 0.0121679 0)
(-0.00174507 0.0151944 0)
(-0.00350212 0.0166479 0)
(-0.00425298 0.0174619 0)
(-0.00299061 0.0159899 0)
(-0.00162404 0.0117557 0)
(0.00156434 -0.0168014 0)
(0.00399439 -0.0172156 0)
(0.00726745 -0.0179011 0)
(0.00993903 -0.01828 0)
(0.0120848 -0.0174012 0)
(0.0138455 -0.0160715 0)
(0.0154617 -0.0142033 0)
(0.0173763 -0.0104633 0)
(0.0190377 -0.00645771 0)
(0.0198994 -0.00297803 0)
(0.019821 0.000814114 0)
(0.019135 0.00375726 0)
(0.0172529 0.00655375 0)
(0.014896 0.00832001 0)
(0.0125679 0.00926207 0)
(0.0101547 0.010329 0)
(0.00781502 0.0129608 0)
(0.00516144 0.0157918 0)
(0.00231966 0.0190806 0)
(-0.000388525 0.0217608 0)
(-0.00250533 0.0232938 0)
(-0.00370971 0.0237016 0)
(-0.00398365 0.0226325 0)
(-0.00259439 0.0194418 0)
(-0.00131135 0.0129461 0)
(0.00131711 -0.0229642 0)
(0.00378535 -0.0247363 0)
(0.00680018 -0.0257261 0)
(0.00903834 -0.0259779 0)
(0.0111151 -0.02508 0)
(0.0125444 -0.0232611 0)
(0.0134766 -0.0208433 0)
(0.0143004 -0.0170266 0)
(0.0151117 -0.012744 0)
(0.0153783 -0.00892824 0)
(0.0151877 -0.00445717 0)
(0.0143849 -0.001189 0)
(0.0131363 0.00177281 0)
(0.0118171 0.0034809 0)
(0.0104291 0.00458734 0)
(0.00877479 0.00602476 0)
(0.00687346 0.00935264 0)
(0.00477307 0.013024 0)
(0.00238873 0.0164622 0)
(0.000322211 0.0189459 0)
(-0.00153184 0.0202075 0)
(-0.00272908 0.0196023 0)
(-0.00298997 0.0175406 0)
(-0.00184085 0.0142199 0)
(-0.000858388 0.00864283 0)
(0.00129698 -0.023357 0)
(0.00340164 -0.0243408 0)
(0.00595677 -0.0246217 0)
(0.00793207 -0.0241009 0)
(0.00936745 -0.0222793 0)
(0.0102211 -0.0197264 0)
(0.0107964 -0.0171761 0)
(0.011204 -0.0133902 0)
(0.0115067 -0.00878085 0)
(0.0113033 -0.00424175 0)
(0.0108588 0.000710519 0)
(0.0100126 0.00478133 0)
(0.00878848 0.00814109 0)
(0.00773028 0.0100511 0)
(0.00647307 0.0114188 0)
(0.00511323 0.0130917 0)
(0.00326492 0.0162451 0)
(0.00171081 0.0196927 0)
(0.000328151 0.0229616 0)
(-0.000784131 0.0250612 0)
(-0.00211112 0.0257136 0)
(-0.00270201 0.0243099 0)
(-0.00283086 0.0207901 0)
(-0.00188978 0.0160806 0)
(-0.000908199 0.00907414 0)
(0.000963758 -0.0274569 0)
(0.00254644 -0.0292422 0)
(0.00448395 -0.0299759 0)
(0.00586875 -0.029025 0)
(0.00684804 -0.0267843 0)
(0.00730476 -0.0240513 0)
(0.00733868 -0.0210943 0)
(0.00710909 -0.0169394 0)
(0.00659567 -0.0119826 0)
(0.0058376 -0.0072707 0)
(0.00507483 -0.00209669 0)
(0.0043291 0.00208131 0)
(0.00350619 0.00530933 0)
(0.00279479 0.00705261 0)
(0.00204981 0.00846761 0)
(0.00123071 0.0105535 0)
(0.000100875 0.0140351 0)
(-0.000755258 0.0171867 0)
(-0.00124148 0.0200767 0)
(-0.00152131 0.0224849 0)
(-0.00211936 0.0231521 0)
(-0.00219948 0.0211497 0)
(-0.00204126 0.0174409 0)
(-0.00148669 0.0127711 0)
(-0.000612814 0.00625839 0)
(0.000739231 -0.0277724 0)
(0.00195162 -0.0288366 0)
(0.00319802 -0.0288689 0)
(0.00384616 -0.0273189 0)
(0.00428928 -0.0244607 0)
(0.00409964 -0.0208825 0)
(0.00369225 -0.0175853 0)
(0.00294307 -0.0132223 0)
(0.00199537 -0.00802492 0)
(0.00112813 -0.00323672 0)
(0.000292606 0.00169453 0)
(-0.000336719 0.00579313 0)
(-0.000971156 0.00912273 0)
(-0.00143419 0.0109333 0)
(-0.0019794 0.0124384 0)
(-0.00241734 0.0145445 0)
(-0.00292322 0.0177468 0)
(-0.00325205 0.0204978 0)
(-0.00336278 0.023156 0)
(-0.00306783 0.0253951 0)
(-0.00306899 0.0259027 0)
(-0.00279003 0.0236023 0)
(-0.00239749 0.0194979 0)
(-0.00171556 0.0138832 0)
(-0.000614453 0.00622133 0)
(0.000308051 -0.0299886 0)
(0.000913676 -0.0315829 0)
(0.00128485 -0.03156 0)
(0.00130172 -0.029772 0)
(0.00126299 -0.0265368 0)
(0.000638493 -0.0228628 0)
(-2.37657e-05 -0.0192696 0)
(-0.00118418 -0.0144812 0)
(-0.0023453 -0.00942803 0)
(-0.00332984 -0.00480853 0)
(-0.00422942 7.86598e-05 0)
(-0.00484405 0.00407757 0)
(-0.00517868 0.00712087 0)
(-0.0053143 0.00877978 0)
(-0.00555484 0.0101538 0)
(-0.00573142 0.0122126 0)
(-0.00599268 0.0155411 0)
(-0.00590517 0.0182385 0)
(-0.00552849 0.0204271 0)
(-0.00463338 0.0226573 0)
(-0.0038677 0.0233758 0)
(-0.00315145 0.0208422 0)
(-0.00249402 0.0167679 0)
(-0.00152584 0.0111805 0)
(-0.000391627 0.00411312 0)
(6.16954e-05 -0.0294594 0)
(0.000102107 -0.0303163 0)
(-0.000225441 -0.0296512 0)
(-0.000791961 -0.0276841 0)
(-0.00135103 -0.0240881 0)
(-0.00213875 -0.0198387 0)
(-0.00331297 -0.0159755 0)
(-0.00470746 -0.0110584 0)
(-0.00620377 -0.00605564 0)
(-0.00730426 -0.00158402 0)
(-0.00808153 0.00295441 0)
(-0.00849546 0.00640343 0)
(-0.00856909 0.00920491 0)
(-0.00846237 0.0108862 0)
(-0.00838392 0.0124725 0)
(-0.0085008 0.0145844 0)
(-0.00838228 0.0175016 0)
(-0.00803295 0.019538 0)
(-0.00740248 0.0213521 0)
(-0.00641513 0.0231173 0)
(-0.0052375 0.0239086 0)
(-0.00416277 0.021664 0)
(-0.00322209 0.0173888 0)
(-0.00200612 0.011124 0)
(-0.000621822 0.0037921 0)
(-0.000265961 -0.0298738 0)
(-0.000809673 -0.0309788 0)
(-0.00181595 -0.0302586 0)
(-0.00305386 -0.0282257 0)
(-0.00411802 -0.0246989 0)
(-0.00514255 -0.0203489 0)
(-0.00650899 -0.0160733 0)
(-0.00813199 -0.0109129 0)
(-0.00978579 -0.00619407 0)
(-0.0108082 -0.00235531 0)
(-0.0113108 0.00176135 0)
(-0.0114057 0.00499809 0)
(-0.0113547 0.00746078 0)
(-0.0107937 0.00896707 0)
(-0.0103335 0.0105823 0)
(-0.0102311 0.012593 0)
(-0.00980814 0.0154062 0)
(-0.00935529 0.0175048 0)
(-0.00843629 0.0190033 0)
(-0.00736943 0.0205755 0)
(-0.00618247 0.0212477 0)
(-0.00494946 0.0188814 0)
(-0.00373113 0.0147287 0)
(-0.00205637 0.00854937 0)
(-0.000639207 0.00149161 0)
(-0.000440747 -0.0284747 0)
(-0.00157048 -0.0288478 0)
(-0.00310749 -0.0273856 0)
(-0.00482382 -0.0253835 0)
(-0.00630454 -0.0220125 0)
(-0.00771473 -0.0174323 0)
(-0.00938333 -0.0129283 0)
(-0.0109397 -0.00767116 0)
(-0.0125697 -0.00335548 0)
(-0.0131734 -0.000168291 0)
(-0.0132541 0.00333398 0)
(-0.0131591 0.00616818 0)
(-0.0126953 0.00823548 0)
(-0.0119158 0.00944161 0)
(-0.011519 0.0115673 0)
(-0.0111564 0.0136884 0)
(-0.0107463 0.0162505 0)
(-0.0101378 0.0177392 0)
(-0.00903842 0.0188999 0)
(-0.00803877 0.0203607 0)
(-0.00686531 0.020992 0)
(-0.00562358 0.018694 0)
(-0.00436769 0.0139453 0)
(-0.00228287 0.0074224 0)
(-0.000661669 0.000585284 0)
(-0.000688795 -0.0274526 0)
(-0.0022797 -0.0278265 0)
(-0.00420884 -0.0264601 0)
(-0.00638459 -0.0244532 0)
(-0.00817507 -0.0212738 0)
(-0.00993726 -0.0166557 0)
(-0.0119167 -0.0122632 0)
(-0.0133804 -0.00711378 0)
(-0.0145739 -0.00348296 0)
(-0.0147853 -0.00136073 0)
(-0.0148274 0.00198961 0)
(-0.0145438 0.00461732 0)
(-0.0137295 0.0063275 0)
(-0.0131094 0.00791865 0)
(-0.0123868 0.0100096 0)
(-0.011644 0.0119932 0)
(-0.0109415 0.0145159 0)
(-0.0101501 0.0158359 0)
(-0.00934793 0.0169028 0)
(-0.00858248 0.018357 0)
(-0.00770784 0.0187766 0)
(-0.00639628 0.0162759 0)
(-0.00467383 0.0112417 0)
(-0.00253218 0.00455174 0)
(-0.000794285 -0.00155863 0)
(-0.00076607 -0.0253239 0)
(-0.00243597 -0.0250727 0)
(-0.00464055 -0.0230212 0)
(-0.00684541 -0.0211348 0)
(-0.00899168 -0.01827 0)
(-0.010921 -0.0134374 0)
(-0.0130628 -0.0092799 0)
(-0.0145418 -0.00488841 0)
(-0.0154059 -0.00198175 0)
(-0.0157287 -8.92808e-05 0)
(-0.0160569 0.00287185 0)
(-0.0153884 0.00475168 0)
(-0.0151157 0.00643872 0)
(-0.01436 0.00776344 0)
(-0.0133074 0.00973629 0)
(-0.0124355 0.0118853 0)
(-0.0114466 0.0144092 0)
(-0.0105589 0.0157929 0)
(-0.00997078 0.0170265 0)
(-0.00941394 0.0183709 0)
(-0.00850216 0.0184626 0)
(-0.00706097 0.0151307 0)
(-0.00506419 0.00958716 0)
(-0.00268487 0.00293015 0)
(-0.000865149 -0.00322807 0)
(-0.00088865 -0.0237804 0)
(-0.00269284 -0.0233848 0)
(-0.00493859 -0.0214448 0)
(-0.00702457 -0.019488 0)
(-0.00941983 -0.0166149 0)
(-0.0114971 -0.0119709 0)
(-0.01364 -0.00807182 0)
(-0.0149966 -0.00433461 0)
(-0.0161963 -0.00201291 0)
(-0.0165559 -0.0004647 0)
(-0.0166158 0.0017781 0)
(-0.0161216 0.00372484 0)
(-0.016099 0.00537167 0)
(-0.0151512 0.00605641 0)
(-0.0145715 0.00804567 0)
(-0.0134637 0.0100791 0)
(-0.012298 0.0125727 0)
(-0.0115152 0.0143601 0)
(-0.0111533 0.0157806 0)
(-0.010656 0.0168434 0)
(-0.00950356 0.0163186 0)
(-0.00739837 0.0125621 0)
(-0.00544183 0.00651717 0)
(-0.00277643 -2.58665e-05 0)
(-0.000777695 -0.00537126 0)
(-0.000853513 -0.0214483 0)
(-0.0024384 -0.020655 0)
(-0.00452342 -0.0183376 0)
(-0.00659186 -0.0162521 0)
(-0.00883403 -0.0134183 0)
(-0.0112147 -0.00886347 0)
(-0.0134725 -0.0055019 0)
(-0.0148437 -0.00217405 0)
(-0.0160932 -0.000357059 0)
(-0.0164181 0.00024771 0)
(-0.016476 0.00226016 0)
(-0.01676 0.00405224 0)
(-0.0163565 0.0052258 0)
(-0.0158182 0.0059636 0)
(-0.0155361 0.00775871 0)
(-0.0146147 0.00924362 0)
(-0.013639 0.0121357 0)
(-0.0129722 0.0143974 0)
(-0.012678 0.0159558 0)
(-0.0116552 0.0164358 0)
(-0.0102689 0.0147145 0)
(-0.00791737 0.0104977 0)
(-0.00547141 0.00440772 0)
(-0.00293856 -0.00242105 0)
(-0.000960664 -0.00721176 0)
(-0.000712328 -0.0200299 0)
(-0.00205081 -0.0192122 0)
(-0.00402205 -0.0167324 0)
(-0.00574438 -0.0145969 0)
(-0.00805717 -0.0113869 0)
(-0.0103203 -0.00669292 0)
(-0.0124269 -0.00394147 0)
(-0.0137686 -0.00131779 0)
(-0.0147863 -0.000159011 0)
(-0.0153552 5.46948e-05 0)
(-0.0159586 0.00227544 0)
(-0.0162744 0.0036978 0)
(-0.0166165 0.00443267 0)
(-0.0165638 0.00525718 0)
(-0.0165753 0.0068399 0)
(-0.0159864 0.00807254 0)
(-0.0152756 0.0108681 0)
(-0.0143964 0.013397 0)
(-0.0136187 0.014433 0)
(-0.0122667 0.0142324 0)
(-0.0102504 0.0123285 0)
(-0.00778492 0.00727147 0)
(-0.00529174 0.00115652 0)
(-0.00277052 -0.00501816 0)
(-0.0009659 -0.0096156 0)
(-0.000646508 -0.0184694 0)
(-0.00166353 -0.0170535 0)
(-0.00311579 -0.0143197 0)
(-0.00452557 -0.0118404 0)
(-0.00671776 -0.00840624 0)
(-0.00874553 -0.00408855 0)
(-0.0103565 -0.00174646 0)
(-0.0117125 0.000365938 0)
(-0.0130093 0.00131567 0)
(-0.0141616 0.00148797 0)
(-0.0150995 0.00318527 0)
(-0.0160068 0.00470459 0)
(-0.0167874 0.00546826 0)
(-0.0172278 0.00583483 0)
(-0.0176219 0.00703008 0)
(-0.0170256 0.00773724 0)
(-0.0161393 0.0102953 0)
(-0.0150316 0.0124676 0)
(-0.0136157 0.0135293 0)
(-0.0122996 0.0125833 0)
(-0.0100877 0.00967778 0)
(-0.00725265 0.00490617 0)
(-0.0050358 -0.00119569 0)
(-0.00256121 -0.00732427 0)
(-0.000748538 -0.0114007 0)
(-0.000654368 -0.017385 0)
(-0.00142017 -0.0163861 0)
(-0.00241138 -0.0134946 0)
(-0.00348447 -0.0104908 0)
(-0.00518553 -0.00662859 0)
(-0.00694832 -0.00257531 0)
(-0.0084265 -0.000597831 0)
(-0.00984336 0.00170383 0)
(-0.0113876 0.00261806 0)
(-0.0129767 0.00244694 0)
(-0.0143216 0.00436758 0)
(-0.0159944 0.00563552 0)
(-0.016849 0.00584897 0)
(-0.0173057 0.00625866 0)
(-0.0176613 0.00670704 0)
(-0.0171331 0.00648401 0)
(-0.0161826 0.0087183 0)
(-0.0148738 0.0106442 0)
(-0.0132027 0.0114662 0)
(-0.0109774 0.0103831 0)
(-0.00874057 0.00675673 0)
(-0.00640553 0.00169306 0)
(-0.00415756 -0.00394688 0)
(-0.00216085 -0.00981003 0)
(-0.000669755 -0.0131911 0)
(-0.000349454 -0.0162147 0)
(-0.00110126 -0.0151817 0)
(-0.002188 -0.0120568 0)
(-0.00281713 -0.00881983 0)
(-0.00443842 -0.00459823 0)
(-0.0056439 -0.0005514 0)
(-0.00715547 0.0014282 0)
(-0.0083545 0.00358347 0)
(-0.00987597 0.00476013 0)
(-0.0118689 0.00467011 0)
(-0.0135747 0.00649077 0)
(-0.0147899 0.00746428 0)
(-0.0159736 0.00686517 0)
(-0.016682 0.00667391 0)
(-0.0166369 0.00678686 0)
(-0.0163044 0.00604449 0)
(-0.0154314 0.00776344 0)
(-0.0138073 0.00910177 0)
(-0.0120728 0.00916055 0)
(-0.00949654 0.00755524 0)
(-0.00706821 0.00463258 0)
(-0.00476156 -0.000244191 0)
(-0.00291885 -0.00587475 0)
(-0.00164955 -0.0112967 0)
(-0.000554326 -0.0145779 0)
(-0.000365998 -0.0157445 0)
(-0.00116743 -0.0143124 0)
(-0.00213643 -0.0115381 0)
(-0.00283717 -0.00794312 0)
(-0.0040076 -0.00340098 0)
(-0.00473001 0.000456191 0)
(-0.00592978 0.00250397 0)
(-0.00707945 0.00473133 0)
(-0.00857066 0.00657867 0)
(-0.0103431 0.00661549 0)
(-0.0122139 0.0076428 0)
(-0.0133076 0.00836101 0)
(-0.0141406 0.0080221 0)
(-0.0149294 0.00705896 0)
(-0.0149192 0.00634748 0)
(-0.0141494 0.00520757 0)
(-0.0131263 0.00599274 0)
(-0.0114243 0.00694517 0)
(-0.00961465 0.00673687 0)
(-0.00732272 0.00481676 0)
(-0.00544693 0.00155953 0)
(-0.00313365 -0.00289757 0)
(-0.001686 -0.0073335 0)
(-0.000920329 -0.0124209 0)
(-0.000271742 -0.015585 0)
(-0.000423535 -0.0145303 0)
(-0.0010168 -0.0132338 0)
(-0.00183439 -0.0102367 0)
(-0.00301558 -0.00675309 0)
(-0.00367628 -0.00251268 0)
(-0.00418554 0.0015095 0)
(-0.00521114 0.00401437 0)
(-0.00628715 0.00645209 0)
(-0.00741572 0.0083569 0)
(-0.00874457 0.00867729 0)
(-0.0101662 0.00976234 0)
(-0.0115755 0.00958129 0)
(-0.0122877 0.0086369 0)
(-0.0123286 0.0075257 0)
(-0.0120713 0.00587295 0)
(-0.0109591 0.00403052 0)
(-0.00977259 0.00468183 0)
(-0.00846792 0.0051676 0)
(-0.00657969 0.00456175 0)
(-0.00459026 0.00292342 0)
(-0.00281648 -5.77612e-05 0)
(-0.00184584 -0.00446828 0)
(-0.00107722 -0.00833391 0)
(-0.000416031 -0.0129359 0)
(-7.29604e-05 -0.0158932 0)
(-8.9306e-05 -0.0140954 0)
(-0.000713109 -0.0127503 0)
(-0.00165272 -0.00923707 0)
(-0.00269894 -0.00586677 0)
(-0.00348551 -0.00205679 0)
(-0.00382974 0.00220922 0)
(-0.00440702 0.00488565 0)
(-0.00522556 0.00722212 0)
(-0.00603251 0.00936209 0)
(-0.00729467 0.00969356 0)
(-0.00823318 0.0108299 0)
(-0.00885156 0.0107701 0)
(-0.00950166 0.00889338 0)
(-0.00957352 0.00684766 0)
(-0.00885262 0.00486849 0)
(-0.008089 0.00267811 0)
(-0.0068744 0.00328674 0)
(-0.00561217 0.00340734 0)
(-0.00398833 0.00246752 0)
(-0.00246715 0.000644499 0)
(-0.00116622 -0.00141082 0)
(-0.000429955 -0.00478524 0)
(-0.000318976 -0.00886253 0)
(-4.97953e-05 -0.0135626 0)
(-1.68195e-05 -0.0161128 0)
(-0.000146198 -0.0136812 0)
(-0.000828676 -0.0115538 0)
(-0.00140655 -0.0080359 0)
(-0.00230256 -0.00474855 0)
(-0.00264509 -0.00124023 0)
(-0.00295303 0.00246811 0)
(-0.00327942 0.00556222 0)
(-0.00384842 0.00821328 0)
(-0.00462446 0.0106474 0)
(-0.00552533 0.0111099 0)
(-0.00639715 0.0114639 0)
(-0.00681535 0.0109776 0)
(-0.00665883 0.00946453 0)
(-0.00676151 0.00678534 0)
(-0.00627626 0.00423277 0)
(-0.00548216 0.00184017 0)
(-0.00464063 0.00192042 0)
(-0.00349592 0.00195441 0)
(-0.00202799 0.00105107 0)
(-0.00111414 -0.00024509 0)
(-0.00066752 -0.00235248 0)
(3.43801e-05 -0.00541381 0)
(0.000349841 -0.00877796 0)
(0.000167446 -0.0132791 0)
(-2.88702e-05 -0.01597 0)
(-0.00011302 -0.0129609 0)
(-0.000423847 -0.0112929 0)
(-0.000373564 -0.00758906 0)
(-0.0011276 -0.00444709 0)
(-0.00112286 -0.00132712 0)
(-0.00131 0.00293387 0)
(-0.00194088 0.00590037 0)
(-0.00241417 0.0087319 0)
(-0.00319742 0.0112475 0)
(-0.00382105 0.0116818 0)
(-0.0041642 0.0123164 0)
(-0.0048514 0.0110914 0)
(-0.00464059 0.00886221 0)
(-0.00402734 0.00647584 0)
(-0.00371967 0.00344463 0)
(-0.00332584 0.00088469 0)
(-0.00278916 0.00107483 0)
(-0.00212497 0.000519886 0)
(-0.000993417 -0.00019223 0)
(-0.000450555 -0.000824054 0)
(8.7127e-05 -0.00270365 0)
(0.00020128 -0.00591181 0)
(0.000190423 -0.00900989 0)
(0.000221741 -0.0131374 0)
(5.68199e-05 -0.0159343 0)
(0.0003399 -0.013097 0)
(0.000381437 -0.0113241 0)
(0.000494176 -0.00728136 0)
(0.000430771 -0.00394027 0)
(0.000298478 -0.00111241 0)
(0.000270791 0.00339587 0)
(2.53027e-05 0.00674648 0)
(-0.000770781 0.00960306 0)
(-0.00138641 0.0121964 0)
(-0.00206859 0.0121633 0)
(-0.0024349 0.0126186 0)
(-0.00240216 0.0115091 0)
(-0.00256197 0.00853265 0)
(-0.00220812 0.00573467 0)
(-0.00168006 0.00346015 0)
(-0.00161676 0.000768076 0)
(-0.00128646 0.000598609 0)
(-0.000988323 -7.21768e-05 0)
(-0.000620974 -0.000809304 0)
(-0.000229786 -0.00147445 0)
(0.000341171 -0.00303853 0)
(0.000348123 -0.00553178 0)
(0.000283043 -0.00877665 0)
(0.000415085 -0.0131893 0)
(6.0051e-05 -0.015682 0)
(0.000304536 -0.0137594 0)
(0.000583006 -0.0114726 0)
(0.00130389 -0.00760321 0)
(0.00182884 -0.00422089 0)
(0.00232877 -0.00107805 0)
(0.00225133 0.00322629 0)
(0.00204794 0.00711317 0)
(0.00152339 0.0103177 0)
(0.000949423 0.0127346 0)
(0.000512096 0.0128813 0)
(-0.00022661 0.0126932 0)
(-0.00071886 0.0112642 0)
(-0.000566724 0.00870102 0)
(-0.000726738 0.00549279 0)
(-0.00043191 0.00280412 0)
(-0.000130461 0.000467883 0)
(-0.000169148 0.000360285 0)
(-0.000183697 -0.000198261 0)
(-0.000200092 -0.00102413 0)
(9.94086e-05 -0.00187811 0)
(0.000398646 -0.00334235 0)
(0.000448654 -0.00581268 0)
(0.000734842 -0.00909291 0)
(0.000421347 -0.0128469 0)
(-2.2834e-05 -0.0153787 0)
(0.000414923 -0.0140512 0)
(0.00118506 -0.0124386 0)
(0.00251955 -0.00868378 0)
(0.0034395 -0.00509691 0)
(0.00435753 -0.00160758 0)
(0.00465088 0.00369898 0)
(0.00423687 0.00751733 0)
(0.00397633 0.0108081 0)
(0.00336189 0.0132877 0)
(0.00283898 0.0134747 0)
(0.00240853 0.0140228 0)
(0.00128156 0.0118871 0)
(0.00102573 0.00851517 0)
(0.00113187 0.00559063 0)
(0.000995387 0.00274563 0)
(0.000732574 0.000451428 0)
(0.000689303 0.000632238 0)
(0.00059754 -6.23464e-05 0)
(0.00049991 -0.00114907 0)
(0.000817221 -0.00213872 0)
(0.00106229 -0.00346245 0)
(0.0011152 -0.00589568 0)
(0.000721647 -0.00878178 0)
(0.000340878 -0.0123431 0)
(0.0001771 -0.0152568 0)
(0.000823568 -0.0155073 0)
(0.00202673 -0.0138509 0)
(0.00333984 -0.0100863 0)
(0.00481333 -0.00626557 0)
(0.00601149 -0.00244656 0)
(0.00669887 0.00342567 0)
(0.0069982 0.0078455 0)
(0.00649116 0.0113388 0)
(0.00609623 0.0140196 0)
(0.00546436 0.0139587 0)
(0.00483044 0.0144719 0)
(0.00441733 0.0128253 0)
(0.00337107 0.00888568 0)
(0.00276231 0.0055098 0)
(0.00243022 0.00328708 0)
(0.00187925 0.000793488 0)
(0.00151262 0.000522345 0)
(0.0014452 4.63496e-06 0)
(0.00110918 -0.00124364 0)
(0.00124207 -0.00251116 0)
(0.00144018 -0.00361667 0)
(0.00136746 -0.00541375 0)
(0.000795955 -0.00818441 0)
(0.000527928 -0.0122772 0)
(0.000184377 -0.0147965 0)
(0.000688651 -0.0172147 0)
(0.00192236 -0.0152923 0)
(0.00397716 -0.0117069 0)
(0.005763 -0.00810228 0)
(0.00759416 -0.00363846 0)
(0.00849234 0.0025698 0)
(0.00910824 0.00778716 0)
(0.00912327 0.0118208 0)
(0.00896971 0.0144527 0)
(0.00879836 0.0149204 0)
(0.0077414 0.0151746 0)
(0.00685032 0.013528 0)
(0.00603908 0.0103802 0)
(0.00473077 0.00661572 0)
(0.00381242 0.00370717 0)
(0.0031811 0.00146761 0)
(0.0023722 0.00107611 0)
(0.00179453 0.000379332 0)
(0.00156842 -0.000939664 0)
(0.00153409 -0.00250407 0)
(0.00148219 -0.00362009 0)
(0.00149525 -0.0051681 0)
(0.00120721 -0.00787504 0)
(0.000482945 -0.0116467 0)
(7.51442e-05 -0.0144587 0)
(0.000687236 -0.0183464 0)
(0.00208107 -0.0175295 0)
(0.00452851 -0.0143276 0)
(0.00651678 -0.0102915 0)
(0.00857625 -0.00548176 0)
(0.00987865 0.00174926 0)
(0.010486 0.00714097 0)
(0.0109755 0.0114935 0)
(0.0110197 0.0143779 0)
(0.0108073 0.0153494 0)
(0.0103966 0.0167023 0)
(0.00901627 0.0147303 0)
(0.00794527 0.0112426 0)
(0.006802 0.00800586 0)
(0.00532921 0.00497668 0)
(0.00398205 0.00239937 0)
(0.00318172 0.00206598 0)
(0.00239847 0.000914383 0)
(0.00217172 -0.000970858 0)
(0.00228933 -0.00238361 0)
(0.00197166 -0.00360158 0)
(0.00163699 -0.00507442 0)
(0.00113575 -0.00707591 0)
(0.000660488 -0.0109905 0)
(0.000328545 -0.0141858 0)
(0.000957762 -0.0202701 0)
(0.00254105 -0.0196314 0)
(0.00443387 -0.0166072 0)
(0.00669613 -0.0126376 0)
(0.00877664 -0.00737863 0)
(0.0102665 0.000478595 0)
(0.0114133 0.00655765 0)
(0.0117623 0.0112447 0)
(0.0122524 0.0146503 0)
(0.0119048 0.0156094 0)
(0.0115206 0.0171761 0)
(0.0108413 0.0162381 0)
(0.00935351 0.0128217 0)
(0.00774452 0.00949254 0)
(0.00629907 0.00686535 0)
(0.00492969 0.00383271 0)
(0.00366733 0.00283028 0)
(0.0030338 0.00149808 0)
(0.00267005 -0.00080687 0)
(0.00265905 -0.00228092 0)
(0.00253322 -0.00286799 0)
(0.00176791 -0.00421781 0)
(0.00115556 -0.00678413 0)
(0.000824223 -0.0107805 0)
(0.000327181 -0.0133645 0)
(0.000729241 -0.0222117 0)
(0.00204909 -0.0214465 0)
(0.00409256 -0.0188348 0)
(0.00625062 -0.0151607 0)
(0.00841615 -0.00936294 0)
(0.0099431 -0.00122543 0)
(0.0112296 0.00554619 0)
(0.0118825 0.0105492 0)
(0.0124487 0.014243 0)
(0.0126058 0.0161922 0)
(0.0118887 0.0178521 0)
(0.0109209 0.0171496 0)
(0.00996875 0.0147031 0)
(0.00833471 0.0113986 0)
(0.00689355 0.00809113 0)
(0.00567081 0.00533098 0)
(0.00415818 0.00415177 0)
(0.0033272 0.00203746 0)
(0.00332853 -0.000544345 0)
(0.00321959 -0.00220733 0)
(0.00296434 -0.0026261 0)
(0.00242378 -0.00350723 0)
(0.00155749 -0.00605778 0)
(0.000464096 -0.010038 0)
(0.000115723 -0.0128937 0)
(0.000532223 -0.0233137 0)
(0.00187889 -0.0234066 0)
(0.00376447 -0.0212576 0)
(0.00539086 -0.0174522 0)
(0.00738773 -0.0115 0)
(0.00889927 -0.00265295 0)
(0.0100567 0.00438137 0)
(0.0108721 0.00986664 0)
(0.0112901 0.0138175 0)
(0.011426 0.0162225 0)
(0.0115135 0.0190923 0)
(0.0104805 0.0183549 0)
(0.00952609 0.0156531 0)
(0.00847834 0.0129012 0)
(0.00690408 0.00979661 0)
(0.00549092 0.00687625 0)
(0.00445083 0.00544125 0)
(0.00401337 0.00243552 0)
(0.00432583 -0.00071323 0)
(0.00427842 -0.00184556 0)
(0.00330879 -0.00201667 0)
(0.0020167 -0.0026403 0)
(0.00125382 -0.00460748 0)
(0.000604561 -0.00915746 0)
(0.000268486 -0.0127407 0)
(0.000678218 -0.0248653 0)
(0.0021633 -0.0251045 0)
(0.00329781 -0.0227029 0)
(0.00445604 -0.0192064 0)
(0.00582417 -0.0132396 0)
(0.00706389 -0.00417107 0)
(0.00831687 0.00334435 0)
(0.00899061 0.00921016 0)
(0.00965995 0.0136385 0)
(0.00982069 0.0159437 0)
(0.00977357 0.0189 0)
(0.00978699 0.0193711 0)
(0.00868237 0.0169103 0)
(0.0074288 0.014298 0)
(0.00609776 0.0114467 0)
(0.00539837 0.00804796 0)
(0.00489399 0.00581119 0)
(0.00507571 0.00216971 0)
(0.00512222 -0.000797932 0)
(0.00419741 -0.00107499 0)
(0.00325733 -6.9775e-05 0)
(0.00138653 -0.00120724 0)
(0.000731884 -0.00449705 0)
(0.000598747 -0.00895035 0)
(0.00029282 -0.011923 0)
(0.00065715 -0.0264587 0)
(0.001636 -0.0263824 0)
(0.00291741 -0.0237026 0)
(0.00373608 -0.0203128 0)
(0.00451995 -0.0143316 0)
(0.00527319 -0.00546621 0)
(0.00608836 0.00227533 0)
(0.00688159 0.00837143 0)
(0.00744684 0.0128684 0)
(0.00804663 0.0161232 0)
(0.00744931 0.0190703 0)
(0.00720552 0.0195737 0)
(0.00667986 0.0182693 0)
(0.00581581 0.015761 0)
(0.00532556 0.0120356 0)
(0.00516745 0.00818841 0)
(0.00540484 0.00580699 0)
(0.00543191 0.00219348 0)
(0.0048554 0.0002734 0)
(0.00338392 0.000231247 0)
(0.00218481 0.00109157 0)
(0.00128217 0.000182422 0)
(0.000532624 -0.00376585 0)
(2.30574e-05 -0.00864452 0)
(7.95475e-05 -0.0117392 0)
(0.000468845 -0.0273719 0)
(0.00136029 -0.0276262 0)
(0.00237373 -0.0250445 0)
(0.00292653 -0.0209393 0)
(0.00313789 -0.0149945 0)
(0.00359677 -0.00585428 0)
(0.00380123 0.00152293 0)
(0.00432403 0.00769302 0)
(0.00440511 0.0123261 0)
(0.00460685 0.0159316 0)
(0.00472083 0.0198689 0)
(0.0042789 0.0202232 0)
(0.00394433 0.0184333 0)
(0.00421669 0.0158045 0)
(0.00431529 0.0121503 0)
(0.00459592 0.00800061 0)
(0.00501248 0.00551721 0)
(0.00472929 0.0028046 0)
(0.00373478 0.0014489 0)